 argument  1 = C1CC1_mol_9_conformer_0.nw



============================== echo of input deck ==============================
start

title "Molecule conformer 0"

memory total 4000 mb

echo
geometry units angstroms
   C     -0.7361    -0.4702    -0.0659
   C     -0.0359     0.8746    -0.0179
   C      0.7721    -0.4052     0.0839
   H     -1.2788    -0.7382     0.8654
   H     -1.0847    -0.7698    -1.0770
   H      0.0396     1.3879    -0.9999
   H     -0.1550     1.4198     0.9423
   H      1.3366    -0.6653    -0.8366
   H      1.1424    -0.6336     1.1057
end


basis spherical
* library 6-311G
end

driver
  maxiter 500
  xyz final
end

relativistic
  zora on
  zora:cutoff_NMR 1d-8
  zora:cutoff 1d-30
end

dft
  direct
  grid fine
  xc B3LYP
  mult 1
  maxiter 1500
  noprint "final vectors analysis" multipole
end

task dft optimize

task dft freq

property
  shielding 6 4 5 6 7 8 9
end

cosmo
   solvent cdcl3
end

task dft property
================================================================================


                                         
                                         


             Northwest Computational Chemistry Package (NWChem) 7.0.2
             --------------------------------------------------------


                    Environmental Molecular Sciences Laboratory
                       Pacific Northwest National Laboratory
                                Richland, WA 99352

                              Copyright (c) 1994-2020
                       Pacific Northwest National Laboratory
                            Battelle Memorial Institute

             NWChem is an open-source computational chemistry package
                        distributed under the terms of the
                      Educational Community License (ECL) 2.0
             A copy of the license is included with this distribution
                              in the LICENSE.TXT file

                                  ACKNOWLEDGMENT
                                  --------------

            This software and its documentation were developed at the
            EMSL at Pacific Northwest National Laboratory, a multiprogram
            national laboratory, operated for the U.S. Department of Energy
            by Battelle under Contract Number DE-AC05-76RL01830. Support
            for this work was provided by the Department of Energy Office
            of Biological and Environmental Research, Office of Basic
            Energy Sciences, and the Office of Advanced Scientific Computing.


           Job information
           ---------------

    hostname        = ponder
    program         = nwchem
    date            = Fri Aug  2 17:15:40 2024

    compiled        = Sat_Apr_09_17:12:10_2022
    source          = /build/nwchem-f1f4gx/nwchem-7.0.2/build-openmpi
    nwchem branch   = 7.0.2
    nwchem revision = N/A
    ga revision     = 5.8.1
    use scalapack   = T
    input           = C1CC1_mol_9_conformer_0.nw
    prefix          = C1CC1_mol_9_conformer_0.
    data base       = ./C1CC1_mol_9_conformer_0.db
    status          = startup
    nproc           =       40
    time left       =     -1s



           Memory information
           ------------------

    heap     =  131071998 doubles =   1000.0 Mbytes
    stack    =  131071995 doubles =   1000.0 Mbytes
    global   =  262144000 doubles =   2000.0 Mbytes (distinct from heap & stack)
    total    =  524287993 doubles =   4000.0 Mbytes
    verify   = yes
    hardfail = no 


           Directory information
           ---------------------

  0 permanent = .
  0 scratch   = .




                                NWChem Input Module
                                -------------------


                               Molecule conformer 0
                               --------------------

 Scaling coordinates for geometry "geometry" by  1.889725989
 (inverse scale =  0.529177249)

 D3H symmetry detected

          ------
          auto-z
          ------
  no constraints, skipping    0.0000000000000000     
  no constraints, skipping    0.0000000000000000     


                             Geometry "geometry" -> ""
                             -------------------------

 Output coordinates in angstroms (scale by  1.889725989 to convert to a.u.)

  No.       Tag          Charge          X              Y              Z
 ---- ---------------- ---------- -------------- -------------- --------------
    1 C                    6.0000    -0.84597485     0.22667828     0.00000000
    2 C                    6.0000     0.61929657     0.61929657     0.00000000
    3 C                    6.0000     0.22667828    -0.84597485     0.00000000
    4 H                    1.0000    -1.35774003     0.36380534     0.97612611
    5 H                    1.0000    -1.35774003     0.36380534    -0.97612611
    6 H                    1.0000     0.99393468     0.99393468    -0.97612611
    7 H                    1.0000     0.99393468     0.99393468     0.97612611
    8 H                    1.0000     0.36380534    -1.35774003    -0.97612611
    9 H                    1.0000     0.36380534    -1.35774003     0.97612611

      Atomic Mass 
      ----------- 

      C                 12.000000
      H                  1.007825


 Effective nuclear repulsion energy (a.u.)      75.1273956065

            Nuclear Dipole moment (a.u.) 
            ----------------------------
        X                 Y               Z
 ---------------- ---------------- ----------------
    -0.0000000000    -0.0000000000     0.0000000000

      Symmetry information
      --------------------

 Group name             D3h       
 Group number             27
 Group order              12
 No. of unique centers     2

      Symmetry unique atoms

     1    4



                                Z-matrix (autoz)
                                -------- 

 Units are Angstrom for bonds and degrees for angles

      Type          Name      I     J     K     L     M      Value
      ----------- --------  ----- ----- ----- ----- ----- ----------
    1 Stretch                  1     2                       1.51696
    2 Stretch                  1     3                       1.51696
    3 Stretch                  1     4                       1.11064
    4 Stretch                  1     5                       1.11064
    5 Stretch                  2     3                       1.51696
    6 Stretch                  2     6                       1.11064
    7 Stretch                  2     7                       1.11064
    8 Stretch                  3     8                       1.11064
    9 Stretch                  3     9                       1.11064
   10 Bend                     1     2     3                60.00000
   11 Bend                     1     2     6               114.40137
   12 Bend                     1     2     7               114.40137
   13 Bend                     1     3     2                60.00000
   14 Bend                     1     3     8               114.40137
   15 Bend                     1     3     9               114.40137
   16 Bend                     2     1     3                60.00000
   17 Bend                     2     1     4               114.40137
   18 Bend                     2     1     5               114.40137
   19 Bend                     2     3     8               114.40137
   20 Bend                     2     3     9               114.40137
   21 Bend                     3     1     4               114.40137
   22 Bend                     3     1     5               114.40137
   23 Bend                     3     2     6               114.40137
   24 Bend                     3     2     7               114.40137
   25 Bend                     4     1     5               123.01586
   26 Bend                     6     2     7               123.01586
   27 Bend                     8     3     9               123.01586
   28 Torsion                  1     2     3     8         105.18369
   29 Torsion                  1     2     3     9        -105.18369
   30 Torsion                  1     3     2     6        -105.18369
   31 Torsion                  1     3     2     7         105.18369
   32 Torsion                  2     1     3     8        -105.18369
   33 Torsion                  2     1     3     9         105.18369
   34 Torsion                  2     3     1     4        -105.18369
   35 Torsion                  2     3     1     5         105.18369
   36 Torsion                  3     1     2     6         105.18369
   37 Torsion                  3     1     2     7        -105.18369
   38 Torsion                  3     2     1     4         105.18369
   39 Torsion                  3     2     1     5        -105.18369
   40 Torsion                  4     1     2     6        -149.63263
   41 Torsion                  4     1     2     7          -0.00000
   42 Torsion                  4     1     3     8         149.63263
   43 Torsion                  4     1     3     9          -0.00000
   44 Torsion                  5     1     2     6           0.00000
   45 Torsion                  5     1     2     7         149.63263
   46 Torsion                  5     1     3     8           0.00000
   47 Torsion                  5     1     3     9        -149.63263
   48 Torsion                  6     2     3     8          -0.00000
   49 Torsion                  6     2     3     9         149.63263
   50 Torsion                  7     2     3     8        -149.63263
   51 Torsion                  7     2     3     9           0.00000


            XYZ format geometry
            -------------------
     9
 geometry
 C                    -0.84597485     0.22667828     0.00000000
 C                     0.61929657     0.61929657     0.00000000
 C                     0.22667828    -0.84597485     0.00000000
 H                    -1.35774003     0.36380534     0.97612611
 H                    -1.35774003     0.36380534    -0.97612611
 H                     0.99393468     0.99393468    -0.97612611
 H                     0.99393468     0.99393468     0.97612611
 H                     0.36380534    -1.35774003    -0.97612611
 H                     0.36380534    -1.35774003     0.97612611

 ==============================================================================
                                internuclear distances
 ------------------------------------------------------------------------------
       center one      |      center two      | atomic units |  angstroms
 ------------------------------------------------------------------------------
    2 C                |   1 C                |     2.86664  |     1.51696
    3 C                |   1 C                |     2.86664  |     1.51696
    3 C                |   2 C                |     2.86664  |     1.51696
    4 H                |   1 C                |     2.09881  |     1.11064
    5 H                |   1 C                |     2.09881  |     1.11064
    6 H                |   2 C                |     2.09881  |     1.11064
    7 H                |   2 C                |     2.09881  |     1.11064
    8 H                |   3 C                |     2.09881  |     1.11064
    9 H                |   3 C                |     2.09881  |     1.11064
 ------------------------------------------------------------------------------
                         number of included internuclear distances:          9
 ==============================================================================



 ==============================================================================
                                 internuclear angles
 ------------------------------------------------------------------------------
        center 1       |       center 2       |       center 3       |  degrees
 ------------------------------------------------------------------------------
    1 C                |   2 C                |   3 C                |    60.00
    2 C                |   1 C                |   4 H                |   114.40
    2 C                |   1 C                |   5 H                |   114.40
    3 C                |   1 C                |   4 H                |   114.40
    3 C                |   1 C                |   5 H                |   114.40
    4 H                |   1 C                |   5 H                |   123.02
    1 C                |   2 C                |   3 C                |    60.00
    1 C                |   2 C                |   6 H                |   114.40
    1 C                |   2 C                |   7 H                |   114.40
    3 C                |   2 C                |   6 H                |   114.40
    3 C                |   2 C                |   7 H                |   114.40
    6 H                |   2 C                |   7 H                |   123.02
    3 C                |   2 C                |   1 C                |    60.00
    1 C                |   3 C                |   8 H                |   114.40
    1 C                |   3 C                |   9 H                |   114.40
    2 C                |   3 C                |   8 H                |   114.40
    2 C                |   3 C                |   9 H                |   114.40
    8 H                |   3 C                |   9 H                |   123.02
 ------------------------------------------------------------------------------
                            number of included internuclear angles:         18
 ==============================================================================





 Summary of "ao basis" -> "" (spherical)
 ------------------------------------------------------------------------------
       Tag                 Description            Shells   Functions and Types
 ---------------- ------------------------------  ------  ---------------------
 *                           6-311G                   on all atoms 




                           NWChem Geometry Optimization
                           ----------------------------




                               Molecule conformer 0


  no constraints, skipping    0.0000000000000000     
 maximum gradient threshold         (gmax) =   0.000450
 rms gradient threshold             (grms) =   0.000300
 maximum cartesian step threshold   (xmax) =   0.001800
 rms cartesian step threshold       (xrms) =   0.001200
 fixed trust radius                (trust) =   0.300000
 maximum step size to saddle      (sadstp) =   0.100000
 energy precision                  (eprec) =   5.0D-06
 maximum number of steps          (nptopt) =  500
 initial hessian option           (inhess) =    0
 line search option               (linopt) =    1
 hessian update option            (modupd) =    1
 saddle point option              (modsad) =    0
 initial eigen-mode to follow     (moddir) =    0
 initial variable to follow       (vardir) =    0
 follow first negative mode     (firstneg) =    T
 apply conjugacy                    (opcg) =    F
 source of zmatrix                         =   autoz   


          -------------------
          Energy Minimization
          -------------------


 Names of Z-matrix variables 
    1              2              3              4              5         
    6              7              8              9             10         
   11             12             13             14             15         
   16             17             18             19             20         
   21             22             23             24             25         
   26             27             28             29             30         
   31             32             33             34             35         
   36             37             38             39             40         
   41             42             43             44             45         
   46             47             48             49             50         
   51         

 Variables with the same non-blank name are constrained to be equal


 Using diagonal initial Hessian 
 Scaling for Hessian diagonals: bonds = 1.00  angles = 0.25  torsions = 0.10

          --------
          Step   0
          --------


                         Geometry "geometry" -> "geometry"
                         ---------------------------------

 Output coordinates in angstroms (scale by  1.889725989 to convert to a.u.)

  No.       Tag          Charge          X              Y              Z
 ---- ---------------- ---------- -------------- -------------- --------------
    1 C                    6.0000    -0.84597485     0.22667828     0.00000000
    2 C                    6.0000     0.61929657     0.61929657     0.00000000
    3 C                    6.0000     0.22667828    -0.84597485     0.00000000
    4 H                    1.0000    -1.35774003     0.36380534     0.97612611
    5 H                    1.0000    -1.35774003     0.36380534    -0.97612611
    6 H                    1.0000     0.99393468     0.99393468    -0.97612611
    7 H                    1.0000     0.99393468     0.99393468     0.97612611
    8 H                    1.0000     0.36380534    -1.35774003    -0.97612611
    9 H                    1.0000     0.36380534    -1.35774003     0.97612611

      Atomic Mass 
      ----------- 

      C                 12.000000
      H                  1.007825


 Effective nuclear repulsion energy (a.u.)      75.1273956065

            Nuclear Dipole moment (a.u.) 
            ----------------------------
        X                 Y               Z
 ---------------- ---------------- ----------------
    -0.0000000000    -0.0000000000     0.0000000000

      Symmetry information
      --------------------

 Group name             D3h       
 Group number             27
 Group order              12
 No. of unique centers     2

      Symmetry unique atoms

     1    4


                                 NWChem DFT Module
                                 -----------------


                               Molecule conformer 0


                      Basis "ao basis" -> "ao basis" (spherical)
                      -----
  C (Carbon)
  ----------
            Exponent  Coefficients 
       -------------- ---------------------------------------------------------
  1 S  4.56324000E+03  0.001967
  1 S  6.82024000E+02  0.015231
  1 S  1.54973000E+02  0.076127
  1 S  4.44553000E+01  0.260801
  1 S  1.30290000E+01  0.616462
  1 S  1.82773000E+00  0.221006

  2 S  2.09642000E+01  0.114660
  2 S  4.80331000E+00  0.919999
  2 S  1.45933000E+00 -0.003031

  3 P  2.09642000E+01  0.040249
  3 P  4.80331000E+00  0.237594
  3 P  1.45933000E+00  0.815854

  4 S  4.83456000E-01  1.000000

  5 P  4.83456000E-01  1.000000

  6 S  1.45585000E-01  1.000000

  7 P  1.45585000E-01  1.000000

  H (Hydrogen)
  ------------
            Exponent  Coefficients 
       -------------- ---------------------------------------------------------
  1 S  3.38650000E+01  0.025494
  1 S  5.09479000E+00  0.190373
  1 S  1.15879000E+00  0.852161

  2 S  3.25840000E-01  1.000000

  3 S  1.02741000E-01  1.000000



 Summary of "ao basis" -> "ao basis" (spherical)
 ------------------------------------------------------------------------------
       Tag                 Description            Shells   Functions and Types
 ---------------- ------------------------------  ------  ---------------------
 C                           6-311G                  7       13   4s3p
 H                           6-311G                  3        3   3s




 Summary of "ao basis" -> "ao basis" (spherical)
 ------------------------------------------------------------------------------
       Tag                 Description            Shells   Functions and Types
 ---------------- ------------------------------  ------  ---------------------
 C                           6-311G                  7       13   4s3p
 H                           6-311G                  3        3   3s


      Symmetry analysis of basis
      --------------------------

        a1'        10
        a1"         0
        a2'         3
        a2"         6
        e'         26
        e"         12

  Caching 1-el integrals 
  Rotation of axis 

            General Information
            -------------------
          SCF calculation type: DFT
          Wavefunction type:  closed shell.
          No. of atoms     :     9
          No. of electrons :    24
           Alpha electrons :    12
            Beta electrons :    12
          Charge           :     0
          Spin multiplicity:     1
          Use of symmetry is: on ; symmetry adaption is: on 
          Maximum number of iterations: ***
          This is a Direct SCF calculation.
          AO basis - number of functions:    57
                     number of shells:    39
          Convergence on energy requested:  1.00D-06
          Convergence on density requested:  1.00D-05
          Convergence on gradient requested:  5.00D-04

              XC Information
              --------------
                         B3LYP Method XC Potential
                     Hartree-Fock (Exact) Exchange  0.200          
                        Slater Exchange Functional  0.800 local    
                    Becke 1988 Exchange Functional  0.720 non-local
              Lee-Yang-Parr Correlation Functional  0.810          
                  VWN I RPA Correlation Functional  0.190 local    

             Grid Information
             ----------------
          Grid used for XC integration:  fine      
          Radial quadrature: Mura-Knowles        
          Angular quadrature: Lebedev. 
          Tag              B.-S. Rad. Rad. Pts. Rad. Cut. Ang. Pts.
          ---              ---------- --------- --------- ---------
          C                   0.70       70           8.0       590
          H                   0.35       60          10.0       590
          Grid pruning is: on 
          Number of quadrature shells:   130
          Spatial weights used:  Erf1

          Convergence Information
          -----------------------
          Convergence aids based upon iterative change in 
          total energy or number of iterations. 
          Levelshifting, if invoked, occurs when the 
          HOMO/LUMO gap drops below (HL_TOL):  1.00D-02
          DIIS, if invoked, will attempt to extrapolate 
          using up to (NFOCK): 10 stored Fock matrices.

                    Damping( 0%)  Levelshifting(0.5)       DIIS
                  --------------- ------------------- ---------------
          dE  on:    start            ASAP                start   
          dE off:    2 iters        *** iters           *** iters 


      Screening Tolerance Information
      -------------------------------
          Density screening/tol_rho:  1.00D-10
          AO Gaussian exp screening on grid/accAOfunc:  14
          CD Gaussian exp screening on grid/accCDfunc:  20
          XC Gaussian exp screening on grid/accXCfunc:  20
          Schwarz screening/accCoul:  1.00D-08

          Performing ZORA calculations
          ----------------------------


      Superposition of Atomic Density Guess
      -------------------------------------

 Sum of atomic energies:        -116.00451404

 Read atomic ZORA corrections from ./C1CC1_mol_9_conformer_0.zora_sf

 dft_zora_read: failed to open./C1CC1_mol_9_conformer_0.zora_sf
 Forcing recalculation of ZORA corrections
       Generating atomic ZORA corrections
       ----------------------------------

 In dft_scf:: zora:Knucl= F

 Grid_pts file          = ./C1CC1_mol_9_conformer_0.gridpts.00
 Record size in doubles =  12289        No. of grid_pts per rec  =   3070
 Max. records in memory =      2        Max. recs in file   =     13598

 Grid integrated density:      23.999994190863
 Requested integration accuracy:   0.10E-06

 Wrote atomic ZORA corrections to ./C1CC1_mol_9_conformer_0.zora_sf


      Superposition of Atomic Density Guess
      -------------------------------------

 Sum of atomic energies:        -116.00451404

      Non-variational initial energy
      ------------------------------

 Total energy =    -118.136765
 1-e energy   =    -302.451694
 2-e energy   =     109.187534
 HOMO         =      -0.346974
 LUMO         =       0.077794


      Symmetry analysis of molecular orbitals - initial
      -------------------------------------------------

  Numbering of irreducible representations: 

     1 a1'         2 a1"         3 a2'         4 a2"         5 e'      
     6 e"      

  Orbital symmetries:

     1 a1'         2 e'          3 e'          4 a1'         5 e'      
     6 e'          7 a2"         8 a1'         9 e"         10 e"      
    11 e'         12 e'         13 a1'        14 a2"        15 e'      
    16 e'         17 a2'        18 e"         19 e"         20 e'      
    21 e'         22 a1'     

   Time after variat. SCF:      4.9
   Time prior to 1st pass:      4.9
 Grid integrated density:      23.999996274773
 Requested integration accuracy:   0.10E-06

           Memory utilization after 1st SCF pass: 
           Heap Space remaining (MW):      131.04           131041582
          Stack Space remaining (MW):      131.06           131064900

   convergence    iter        energy       DeltaE   RMS-Dens  Diis-err    time
 ---------------- ----- ----------------- --------- --------- ---------  ------
 d= 0,ls=0.0,diis     1   -117.9144548080 -1.93D+02  6.25D-03  4.05D-01     5.8
 Grid integrated density:      23.999996615077
 Requested integration accuracy:   0.10E-06
 d= 0,ls=0.0,diis     2   -117.9476914010 -3.32D-02  1.02D-03  1.72D-03     7.0
 Grid integrated density:      23.999996859387
 Requested integration accuracy:   0.10E-06
 d= 0,ls=0.0,diis     3   -117.9478879184 -1.97D-04  2.23D-04  2.03D-04     8.1
 Grid integrated density:      23.999996853475
 Requested integration accuracy:   0.10E-06
 d= 0,ls=0.0,diis     4   -117.9478989849 -1.11D-05  1.22D-04  1.07D-04     9.4
 Grid integrated density:      23.999996857791
 Requested integration accuracy:   0.10E-06
 d= 0,ls=0.0,diis     5   -117.9479132822 -1.43D-05  6.39D-06  6.33D-08    10.4
 Grid integrated density:      23.999996857559
 Requested integration accuracy:   0.10E-06
 d= 0,ls=0.0,diis     6   -117.9479132915 -9.26D-09  1.09D-06  7.72D-10    11.8
(nogshift,skip_gshiftAOev,done_Fji)=( 1,F,F)


         Total DFT energy =     -117.947913291456
      One electron energy =     -305.642345491432
           Coulomb energy =      131.051406069428
    Exchange-Corr. energy =      -18.484369475956
 Nuclear repulsion energy =       75.127395606504

       Scaling correction =        0.026252934318

 Numeric. integr. density =       23.999996857559

     Total iterative time =      6.9s



                  Occupations of the irreducible representations
                  ----------------------------------------------

                     irrep           alpha         beta
                     --------     --------     --------
                     a1'               3.0          3.0
                     a1"               0.0          0.0
                     a2'               0.0          0.0
                     a2"               1.0          1.0
                     e'                6.0          6.0
                     e"                2.0          2.0


 center of mass
 --------------
 x =  -0.00000000 y =  -0.00000000 z =   0.00000000

 moments of inertia (a.u.)
 ------------------
          91.213924326188           0.000000000000           0.000000000000
           0.000000000000          91.213924326188           0.000000000000
           0.000000000000           0.000000000000         141.277273702848

            General Information
            -------------------
          SCF calculation type: DFT
          Wavefunction type:  closed shell.
          No. of atoms     :     9
          No. of electrons :    24
           Alpha electrons :    12
            Beta electrons :    12
          Charge           :     0
          Spin multiplicity:     1
          Use of symmetry is: on ; symmetry adaption is: on 
          Maximum number of iterations: ***
          This is a Direct SCF calculation.
          AO basis - number of functions:    57
                     number of shells:    39
          Convergence on energy requested:  1.00D-06
          Convergence on density requested:  1.00D-05
          Convergence on gradient requested:  5.00D-04

              XC Information
              --------------
                         B3LYP Method XC Potential
                     Hartree-Fock (Exact) Exchange  0.200          
                        Slater Exchange Functional  0.800 local    
                    Becke 1988 Exchange Functional  0.720 non-local
              Lee-Yang-Parr Correlation Functional  0.810          
                  VWN I RPA Correlation Functional  0.190 local    

             Grid Information
             ----------------
          Grid used for XC integration:  fine      
          Radial quadrature: Mura-Knowles        
          Angular quadrature: Lebedev. 
          Tag              B.-S. Rad. Rad. Pts. Rad. Cut. Ang. Pts.
          ---              ---------- --------- --------- ---------
          C                   0.70       70           8.0       590
          H                   0.35       60          10.0       590
          Grid pruning is: on 
          Number of quadrature shells:   130
          Spatial weights used:  Erf1

          Convergence Information
          -----------------------
          Convergence aids based upon iterative change in 
          total energy or number of iterations. 
          Levelshifting, if invoked, occurs when the 
          HOMO/LUMO gap drops below (HL_TOL):  1.00D-02
          DIIS, if invoked, will attempt to extrapolate 
          using up to (NFOCK): 10 stored Fock matrices.

                    Damping( 0%)  Levelshifting(0.5)       DIIS
                  --------------- ------------------- ---------------
          dE  on:    start            ASAP                start   
          dE off:    2 iters        *** iters           *** iters 


      Screening Tolerance Information
      -------------------------------
          Density screening/tol_rho:  1.00D-10
          AO Gaussian exp screening on grid/accAOfunc:  14
          CD Gaussian exp screening on grid/accCDfunc:  20
          XC Gaussian exp screening on grid/accXCfunc:  20
          Schwarz screening/accCoul:  1.00D-08



                            NWChem DFT Gradient Module
                            --------------------------


                               Molecule conformer 0



  charge          =   0.00
  wavefunction    = closed shell

  Rotation of axis 
  Using symmetry


                         DFT ENERGY GRADIENTS

    atom               coordinates                        gradient
                 x          y          z           x          y          z
   1 C      -1.598661   0.428360   0.000000    0.006838  -0.001832   0.000000
   2 C       1.170301   1.170301   0.000000   -0.005006  -0.005006   0.000000
   3 C       0.428360  -1.598661   0.000000   -0.001832   0.006838  -0.000000
   4 H      -2.565757   0.687492   1.844611    0.002100  -0.000563   0.023892
   5 H      -2.565757   0.687492  -1.844611    0.002100  -0.000563  -0.023892
   6 H       1.878264   1.878264  -1.844611   -0.001537  -0.001537  -0.023892
   7 H       1.878264   1.878264   1.844611   -0.001537  -0.001537   0.023892
   8 H       0.687492  -2.565757  -1.844611   -0.000563   0.002100  -0.023892
   9 H       0.687492  -2.565757   1.844611   -0.000563   0.002100   0.023892

                 ----------------------------------------
                 |  Time  |  1-e(secs)   |  2-e(secs)   |
                 ----------------------------------------
                 |  CPU   |       0.00   |       0.01   |
                 ----------------------------------------
                 |  WALL  |       0.00   |       0.01   |
                 ----------------------------------------
  no constraints, skipping    0.0000000000000000     

@ Step       Energy      Delta E   Gmax     Grms     Xrms     Xmax   Walltime
@ ---- ---------------- -------- -------- -------- -------- -------- --------
@    0    -117.94791329  0.0D+00  0.01996  0.00735  0.00000  0.00000     12.8
                                                                    



                                Z-matrix (autoz)
                                -------- 

 Units are Angstrom for bonds and degrees for angles

      Type          Name      I     J     K     L     M      Value     Gradient
      ----------- --------  ----- ----- ----- ----- ----- ---------- ----------
    1 Stretch                  1     2                       1.51696   -0.00660
    2 Stretch                  1     3                       1.51696   -0.00660
    3 Stretch                  1     4                       1.11064    0.01996
    4 Stretch                  1     5                       1.11064    0.01996
    5 Stretch                  2     3                       1.51696   -0.00660
    6 Stretch                  2     6                       1.11064    0.01996
    7 Stretch                  2     7                       1.11064    0.01996
    8 Stretch                  3     8                       1.11064    0.01996
    9 Stretch                  3     9                       1.11064    0.01996
   10 Bend                     1     2     3                60.00000   -0.00000
   11 Bend                     1     2     6               114.40137   -0.00221
   12 Bend                     1     2     7               114.40137   -0.00221
   13 Bend                     1     3     2                60.00000   -0.00000
   14 Bend                     1     3     8               114.40137   -0.00221
   15 Bend                     1     3     9               114.40137   -0.00221
   16 Bend                     2     1     3                60.00000    0.00000
   17 Bend                     2     1     4               114.40137   -0.00221
   18 Bend                     2     1     5               114.40137   -0.00221
   19 Bend                     2     3     8               114.40137   -0.00221
   20 Bend                     2     3     9               114.40137   -0.00221
   21 Bend                     3     1     4               114.40137   -0.00221
   22 Bend                     3     1     5               114.40137   -0.00221
   23 Bend                     3     2     6               114.40137   -0.00221
   24 Bend                     3     2     7               114.40137   -0.00221
   25 Bend                     4     1     5               123.01586    0.00530
   26 Bend                     6     2     7               123.01586    0.00530
   27 Bend                     8     3     9               123.01586    0.00530
   28 Torsion                  1     2     3     8         105.18369   -0.00160
   29 Torsion                  1     2     3     9        -105.18369    0.00160
   30 Torsion                  1     3     2     6        -105.18369    0.00160
   31 Torsion                  1     3     2     7         105.18369   -0.00160
   32 Torsion                  2     1     3     8        -105.18369    0.00160
   33 Torsion                  2     1     3     9         105.18369   -0.00160
   34 Torsion                  2     3     1     4        -105.18369    0.00160
   35 Torsion                  2     3     1     5         105.18369   -0.00160
   36 Torsion                  3     1     2     6         105.18369   -0.00160
   37 Torsion                  3     1     2     7        -105.18369    0.00160
   38 Torsion                  3     2     1     4         105.18369   -0.00160
   39 Torsion                  3     2     1     5        -105.18369    0.00160
   40 Torsion                  4     1     2     6        -149.63263   -0.00320
   41 Torsion                  4     1     2     7          -0.00000   -0.00000
   42 Torsion                  4     1     3     8         149.63263    0.00320
   43 Torsion                  4     1     3     9          -0.00000   -0.00000
   44 Torsion                  5     1     2     6           0.00000    0.00000
   45 Torsion                  5     1     2     7         149.63263    0.00320
   46 Torsion                  5     1     3     8           0.00000    0.00000
   47 Torsion                  5     1     3     9        -149.63263   -0.00320
   48 Torsion                  6     2     3     8          -0.00000    0.00000
   49 Torsion                  6     2     3     9         149.63263    0.00320
   50 Torsion                  7     2     3     8        -149.63263   -0.00320
   51 Torsion                  7     2     3     9           0.00000    0.00000

 Restricting large step in mode   11 eval= 4.4D-02 step=-3.5D-01 new=-3.0D-01
  no constraints, skipping    0.0000000000000000     
  no constraints, skipping    0.0000000000000000     
  no constraints, skipping    0.0000000000000000     
  no constraints, skipping    0.0000000000000000     
  no constraints, skipping    0.0000000000000000     
  no constraints, skipping    0.0000000000000000     
  no constraints, skipping    0.0000000000000000     
  no constraints, skipping    0.0000000000000000     

                                 NWChem DFT Module
                                 -----------------


                               Molecule conformer 0




 Summary of "ao basis" -> "ao basis" (spherical)
 ------------------------------------------------------------------------------
       Tag                 Description            Shells   Functions and Types
 ---------------- ------------------------------  ------  ---------------------
 C                           6-311G                  7       13   4s3p
 H                           6-311G                  3        3   3s


      Symmetry analysis of basis
      --------------------------

        a1'        10
        a1"         0
        a2'         3
        a2"         6
        e'         26
        e"         12

  Caching 1-el integrals 
  Rotation of axis 

            General Information
            -------------------
          SCF calculation type: DFT
          Wavefunction type:  closed shell.
          No. of atoms     :     9
          No. of electrons :    24
           Alpha electrons :    12
            Beta electrons :    12
          Charge           :     0
          Spin multiplicity:     1
          Use of symmetry is: on ; symmetry adaption is: on 
          Maximum number of iterations: ***
          This is a Direct SCF calculation.
          AO basis - number of functions:    57
                     number of shells:    39
          Convergence on energy requested:  1.00D-06
          Convergence on density requested:  1.00D-05
          Convergence on gradient requested:  5.00D-04

              XC Information
              --------------
                         B3LYP Method XC Potential
                     Hartree-Fock (Exact) Exchange  0.200          
                        Slater Exchange Functional  0.800 local    
                    Becke 1988 Exchange Functional  0.720 non-local
              Lee-Yang-Parr Correlation Functional  0.810          
                  VWN I RPA Correlation Functional  0.190 local    

             Grid Information
             ----------------
          Grid used for XC integration:  fine      
          Radial quadrature: Mura-Knowles        
          Angular quadrature: Lebedev. 
          Tag              B.-S. Rad. Rad. Pts. Rad. Cut. Ang. Pts.
          ---              ---------- --------- --------- ---------
          C                   0.70       70           8.0       590
          H                   0.35       60          10.0       590
          Grid pruning is: on 
          Number of quadrature shells:   130
          Spatial weights used:  Erf1

          Convergence Information
          -----------------------
          Convergence aids based upon iterative change in 
          total energy or number of iterations. 
          Levelshifting, if invoked, occurs when the 
          HOMO/LUMO gap drops below (HL_TOL):  1.00D-02
          DIIS, if invoked, will attempt to extrapolate 
          using up to (NFOCK): 10 stored Fock matrices.

                    Damping( 0%)  Levelshifting(0.5)       DIIS
                  --------------- ------------------- ---------------
          dE  on:    start            ASAP                start   
          dE off:    2 iters        *** iters           *** iters 


      Screening Tolerance Information
      -------------------------------
          Density screening/tol_rho:  1.00D-10
          AO Gaussian exp screening on grid/accAOfunc:  14
          CD Gaussian exp screening on grid/accCDfunc:  20
          XC Gaussian exp screening on grid/accXCfunc:  20
          Schwarz screening/accCoul:  1.00D-08

          Performing ZORA calculations
          ----------------------------


      Superposition of Atomic Density Guess
      -------------------------------------

 Sum of atomic energies:        -116.00451404

 Read atomic ZORA corrections from ./C1CC1_mol_9_conformer_0.zora_sf

 Forcing recalculation of ZORA corrections
       Generating atomic ZORA corrections
       ----------------------------------

 In dft_scf:: zora:Knucl= F

 Grid_pts file          = ./C1CC1_mol_9_conformer_0.gridpts.00
 Record size in doubles =  12289        No. of grid_pts per rec  =   3070
 Max. records in memory =      2        Max. recs in file   =     13598

 Grid integrated density:      23.999997012468
 Requested integration accuracy:   0.10E-06

 Wrote atomic ZORA corrections to ./C1CC1_mol_9_conformer_0.zora_sf


 Loading old vectors from job with title :

Molecule conformer 0


      Symmetry analysis of molecular orbitals - initial
      -------------------------------------------------

  Numbering of irreducible representations: 

     1 a1'         2 a1"         3 a2'         4 a2"         5 e'      
     6 e"      

  Orbital symmetries:

     1 a1'         2 e'          3 e'          4 a1'         5 e'      
     6 e'          7 a2"         8 a1'         9 e"         10 e"      
    11 e'         12 e'         13 a1'        14 a2"        15 e'      
    16 e'         17 a2'        18 e"         19 e"         20 e'      
    21 e'         22 a1'     

   Time after variat. SCF:     17.7
   Time prior to 1st pass:     17.7

           Memory utilization after 1st SCF pass: 
           Heap Space remaining (MW):      131.04           131041582
          Stack Space remaining (MW):      131.06           131064900

   convergence    iter        energy       DeltaE   RMS-Dens  Diis-err    time
 ---------------- ----- ----------------- --------- --------- ---------  ------
 d= 0,ls=0.0,diis     1   -117.9542556097 -1.93D+02  2.09D-03  9.50D-03    18.8
 d= 0,ls=0.0,diis     2   -117.9552626581 -1.01D-03  6.67D-04  1.73D-03    19.8
 d= 0,ls=0.0,diis     3   -117.9553921348 -1.29D-04  3.18D-04  7.57D-04    20.8
 d= 0,ls=0.0,diis     4   -117.9554907030 -9.86D-05  3.53D-05  1.30D-06    21.8
 d= 0,ls=0.0,diis     5   -117.9554908897 -1.87D-07  2.24D-06  1.21D-08    23.1
(nogshift,skip_gshiftAOev,done_Fji)=( 1,F,F)


         Total DFT energy =     -117.955490889683
      One electron energy =     -306.233387101883
           Coulomb energy =      131.375975395489
    Exchange-Corr. energy =      -18.541920900024
 Nuclear repulsion energy =       75.443841716735

       Scaling correction =        0.026238972464

 Numeric. integr. density =       23.999998505802

     Total iterative time =      5.5s



                  Occupations of the irreducible representations
                  ----------------------------------------------

                     irrep           alpha         beta
                     --------     --------     --------
                     a1'               3.0          3.0
                     a1"               0.0          0.0
                     a2'               0.0          0.0
                     a2"               1.0          1.0
                     e'                6.0          6.0
                     e"                2.0          2.0


 center of mass
 --------------
 x =  -0.00000000 y =  -0.00000000 z =   0.00000000

 moments of inertia (a.u.)
 ------------------
          90.559310543279          -0.000000000000          -0.000000000000
          -0.000000000000          90.559310543279           0.000000000000
          -0.000000000000           0.000000000000         143.459324274326
 Line search: 
     step= 1.00 grad=-1.2D-02 hess= 4.6D-03 energy=   -117.955491 mode=downhill
 new step= 1.33                   predicted energy=   -117.955993
  no constraints, skipping    0.0000000000000000     
  no constraints, skipping    0.0000000000000000     
  no constraints, skipping    0.0000000000000000     
  no constraints, skipping    0.0000000000000000     
  no constraints, skipping    0.0000000000000000     
  no constraints, skipping    0.0000000000000000     
  no constraints, skipping    0.0000000000000000     
  no constraints, skipping    0.0000000000000000     

          --------
          Step   1
          --------


                         Geometry "geometry" -> "geometry"
                         ---------------------------------

 Output coordinates in angstroms (scale by  1.889725989 to convert to a.u.)

  No.       Tag          Charge          X              Y              Z
 ---- ---------------- ---------- -------------- -------------- --------------
    1 C                    6.0000    -0.85286195     0.22852367     0.00000000
    2 C                    6.0000     0.62433828     0.62433828     0.00000000
    3 C                    6.0000     0.22852367    -0.85286195     0.00000000
    4 H                    1.0000    -1.37779990     0.36918037     0.91980233
    5 H                    1.0000    -1.37779990     0.36918037    -0.91980233
    6 H                    1.0000     1.00861953     1.00861953    -0.91980233
    7 H                    1.0000     1.00861953     1.00861953     0.91980233
    8 H                    1.0000     0.36918037    -1.37779990    -0.91980233
    9 H                    1.0000     0.36918037    -1.37779990     0.91980233

      Atomic Mass 
      ----------- 

      C                 12.000000
      H                  1.007825


 Effective nuclear repulsion energy (a.u.)      75.5586225786

            Nuclear Dipole moment (a.u.) 
            ----------------------------
        X                 Y               Z
 ---------------- ---------------- ----------------
     0.0000000000    -0.0000000000     0.0000000000

      Symmetry information
      --------------------

 Group name             D3h       
 Group number             27
 Group order              12
 No. of unique centers     2

      Symmetry unique atoms

     1    4


                                 NWChem DFT Module
                                 -----------------


                               Molecule conformer 0




 Summary of "ao basis" -> "ao basis" (spherical)
 ------------------------------------------------------------------------------
       Tag                 Description            Shells   Functions and Types
 ---------------- ------------------------------  ------  ---------------------
 C                           6-311G                  7       13   4s3p
 H                           6-311G                  3        3   3s


      Symmetry analysis of basis
      --------------------------

        a1'        10
        a1"         0
        a2'         3
        a2"         6
        e'         26
        e"         12

  Caching 1-el integrals 
  Rotation of axis 

            General Information
            -------------------
          SCF calculation type: DFT
          Wavefunction type:  closed shell.
          No. of atoms     :     9
          No. of electrons :    24
           Alpha electrons :    12
            Beta electrons :    12
          Charge           :     0
          Spin multiplicity:     1
          Use of symmetry is: on ; symmetry adaption is: on 
          Maximum number of iterations: ***
          This is a Direct SCF calculation.
          AO basis - number of functions:    57
                     number of shells:    39
          Convergence on energy requested:  1.00D-06
          Convergence on density requested:  1.00D-05
          Convergence on gradient requested:  5.00D-04

              XC Information
              --------------
                         B3LYP Method XC Potential
                     Hartree-Fock (Exact) Exchange  0.200          
                        Slater Exchange Functional  0.800 local    
                    Becke 1988 Exchange Functional  0.720 non-local
              Lee-Yang-Parr Correlation Functional  0.810          
                  VWN I RPA Correlation Functional  0.190 local    

             Grid Information
             ----------------
          Grid used for XC integration:  fine      
          Radial quadrature: Mura-Knowles        
          Angular quadrature: Lebedev. 
          Tag              B.-S. Rad. Rad. Pts. Rad. Cut. Ang. Pts.
          ---              ---------- --------- --------- ---------
          C                   0.70       70           8.0       590
          H                   0.35       60          10.0       590
          Grid pruning is: on 
          Number of quadrature shells:   130
          Spatial weights used:  Erf1

          Convergence Information
          -----------------------
          Convergence aids based upon iterative change in 
          total energy or number of iterations. 
          Levelshifting, if invoked, occurs when the 
          HOMO/LUMO gap drops below (HL_TOL):  1.00D-02
          DIIS, if invoked, will attempt to extrapolate 
          using up to (NFOCK): 10 stored Fock matrices.

                    Damping( 0%)  Levelshifting(0.5)       DIIS
                  --------------- ------------------- ---------------
          dE  on:    start            ASAP                start   
          dE off:    2 iters        *** iters           *** iters 


      Screening Tolerance Information
      -------------------------------
          Density screening/tol_rho:  1.00D-10
          AO Gaussian exp screening on grid/accAOfunc:  14
          CD Gaussian exp screening on grid/accCDfunc:  20
          XC Gaussian exp screening on grid/accXCfunc:  20
          Schwarz screening/accCoul:  1.00D-08

          Performing ZORA calculations
          ----------------------------


      Superposition of Atomic Density Guess
      -------------------------------------

 Sum of atomic energies:        -116.00451404

 Read atomic ZORA corrections from ./C1CC1_mol_9_conformer_0.zora_sf

 Forcing recalculation of ZORA corrections
       Generating atomic ZORA corrections
       ----------------------------------

 In dft_scf:: zora:Knucl= F

 Grid_pts file          = ./C1CC1_mol_9_conformer_0.gridpts.00
 Record size in doubles =  12289        No. of grid_pts per rec  =   3070
 Max. records in memory =      2        Max. recs in file   =     13598


 Wrote atomic ZORA corrections to ./C1CC1_mol_9_conformer_0.zora_sf


 Loading old vectors from job with title :

Molecule conformer 0


      Symmetry analysis of molecular orbitals - initial
      -------------------------------------------------

  Numbering of irreducible representations: 

     1 a1'         2 a1"         3 a2'         4 a2"         5 e'      
     6 e"      

  Orbital symmetries:

     1 a1'         2 e'          3 e'          4 a1'         5 e'      
     6 e'          7 a2"         8 a1'         9 e"         10 e"      
    11 e'         12 e'         13 a1'        14 a2"        15 e'      
    16 e'         17 a2'        18 e"         19 e"         20 e'      
    21 e'         22 a1'     

   Time after variat. SCF:     28.7
   Time prior to 1st pass:     28.7

           Memory utilization after 1st SCF pass: 
           Heap Space remaining (MW):      131.04           131041582
          Stack Space remaining (MW):      131.06           131064900

   convergence    iter        energy       DeltaE   RMS-Dens  Diis-err    time
 ---------------- ----- ----------------- --------- --------- ---------  ------
 d= 0,ls=0.0,diis     1   -117.9557054521 -1.94D+02  6.79D-04  1.10D-03    29.9
 d= 0,ls=0.0,diis     2   -117.9558213961 -1.16D-04  2.21D-04  1.92D-04    31.5
 d= 0,ls=0.0,diis     3   -117.9558356456 -1.42D-05  1.06D-04  8.41D-05    32.6
 d= 0,ls=0.0,diis     4   -117.9558465495 -1.09D-05  1.19D-05  1.59D-07    33.7
 d= 0,ls=0.0,diis     5   -117.9558465722 -2.27D-08  7.62D-07  1.35D-09    34.6
(nogshift,skip_gshiftAOev,done_Fji)=( 1,F,F)


         Total DFT energy =     -117.955846572223
      One electron energy =     -306.443721964369
           Coulomb energy =      131.491095298100
    Exchange-Corr. energy =      -18.561842484542
 Nuclear repulsion energy =       75.558622578588

       Scaling correction =        0.026240762403

 Numeric. integr. density =       23.999998987665

     Total iterative time =      6.0s



                  Occupations of the irreducible representations
                  ----------------------------------------------

                     irrep           alpha         beta
                     --------     --------     --------
                     a1'               3.0          3.0
                     a1"               0.0          0.0
                     a2'               0.0          0.0
                     a2"               1.0          1.0
                     e'                6.0          6.0
                     e"                2.0          2.0


 center of mass
 --------------
 x =   0.00000000 y =  -0.00000000 z =   0.00000000

 moments of inertia (a.u.)
 ------------------
          90.349072520651           0.000000000000           0.000000000000
           0.000000000000          90.349072520651           0.000000000000
           0.000000000000           0.000000000000         144.159448298440

            General Information
            -------------------
          SCF calculation type: DFT
          Wavefunction type:  closed shell.
          No. of atoms     :     9
          No. of electrons :    24
           Alpha electrons :    12
            Beta electrons :    12
          Charge           :     0
          Spin multiplicity:     1
          Use of symmetry is: on ; symmetry adaption is: on 
          Maximum number of iterations: ***
          This is a Direct SCF calculation.
          AO basis - number of functions:    57
                     number of shells:    39
          Convergence on energy requested:  1.00D-06
          Convergence on density requested:  1.00D-05
          Convergence on gradient requested:  5.00D-04

              XC Information
              --------------
                         B3LYP Method XC Potential
                     Hartree-Fock (Exact) Exchange  0.200          
                        Slater Exchange Functional  0.800 local    
                    Becke 1988 Exchange Functional  0.720 non-local
              Lee-Yang-Parr Correlation Functional  0.810          
                  VWN I RPA Correlation Functional  0.190 local    

             Grid Information
             ----------------
          Grid used for XC integration:  fine      
          Radial quadrature: Mura-Knowles        
          Angular quadrature: Lebedev. 
          Tag              B.-S. Rad. Rad. Pts. Rad. Cut. Ang. Pts.
          ---              ---------- --------- --------- ---------
          C                   0.70       70           8.0       590
          H                   0.35       60          10.0       590
          Grid pruning is: on 
          Number of quadrature shells:   130
          Spatial weights used:  Erf1

          Convergence Information
          -----------------------
          Convergence aids based upon iterative change in 
          total energy or number of iterations. 
          Levelshifting, if invoked, occurs when the 
          HOMO/LUMO gap drops below (HL_TOL):  1.00D-02
          DIIS, if invoked, will attempt to extrapolate 
          using up to (NFOCK): 10 stored Fock matrices.

                    Damping( 0%)  Levelshifting(0.5)       DIIS
                  --------------- ------------------- ---------------
          dE  on:    start            ASAP                start   
          dE off:    2 iters        *** iters           *** iters 


      Screening Tolerance Information
      -------------------------------
          Density screening/tol_rho:  1.00D-10
          AO Gaussian exp screening on grid/accAOfunc:  14
          CD Gaussian exp screening on grid/accCDfunc:  20
          XC Gaussian exp screening on grid/accXCfunc:  20
          Schwarz screening/accCoul:  1.00D-08



                            NWChem DFT Gradient Module
                            --------------------------


                               Molecule conformer 0



  charge          =   0.00
  wavefunction    = closed shell

  Rotation of axis 
  Using symmetry


                         DFT ENERGY GRADIENTS

    atom               coordinates                        gradient
                 x          y          z           x          y          z
   1 C      -1.611675   0.431847   0.000000   -0.022144   0.005933   0.000000
   2 C       1.179828   1.179828   0.000000    0.016210   0.016210   0.000000
   3 C       0.431847  -1.611675   0.000000    0.005933  -0.022144   0.000000
   4 H      -2.603664   0.697650   1.738174    0.009176  -0.002459  -0.003178
   5 H      -2.603664   0.697650  -1.738174    0.009176  -0.002459   0.003178
   6 H       1.906015   1.906015  -1.738174   -0.006717  -0.006717   0.003178
   7 H       1.906015   1.906015   1.738174   -0.006717  -0.006717  -0.003178
   8 H       0.697650  -2.603664  -1.738174   -0.002459   0.009176   0.003178
   9 H       0.697650  -2.603664   1.738174   -0.002459   0.009176  -0.003178

                 ----------------------------------------
                 |  Time  |  1-e(secs)   |  2-e(secs)   |
                 ----------------------------------------
                 |  CPU   |       0.00   |       0.02   |
                 ----------------------------------------
                 |  WALL  |       0.00   |       0.02   |
                 ----------------------------------------
  no constraints, skipping    0.0000000000000000     

  Step       Energy      Delta E   Gmax     Grms     Xrms     Xmax   Walltime
  ---- ---------------- -------- -------- -------- -------- -------- --------
@    1    -117.95584657 -7.9D-03  0.00757  0.00284  0.05329  0.10623     35.7
                                                                    



                                Z-matrix (autoz)
                                -------- 

 Units are Angstrom for bonds and degrees for angles

      Type          Name      I     J     K     L     M      Value     Gradient
      ----------- --------  ----- ----- ----- ----- ----- ---------- ----------
    1 Stretch                  1     2                       1.52931    0.00227
    2 Stretch                  1     3                       1.52931    0.00227
    3 Stretch                  1     4                       1.06835   -0.00757
    4 Stretch                  1     5                       1.06835   -0.00757
    5 Stretch                  2     3                       1.52931    0.00227
    6 Stretch                  2     6                       1.06835   -0.00757
    7 Stretch                  2     7                       1.06835   -0.00757
    8 Stretch                  3     8                       1.06835   -0.00757
    9 Stretch                  3     9                       1.06835   -0.00757
   10 Bend                     1     2     3                60.00000    0.00000
   11 Bend                     1     2     6               116.13797   -0.00102
   12 Bend                     1     2     7               116.13797   -0.00102
   13 Bend                     1     3     2                60.00000    0.00000
   14 Bend                     1     3     8               116.13797   -0.00102
   15 Bend                     1     3     9               116.13797   -0.00102
   16 Bend                     2     1     3                60.00000   -0.00000
   17 Bend                     2     1     4               116.13797   -0.00102
   18 Bend                     2     1     5               116.13797   -0.00102
   19 Bend                     2     3     8               116.13797   -0.00102
   20 Bend                     2     3     9               116.13797   -0.00102
   21 Bend                     3     1     4               116.13797   -0.00102
   22 Bend                     3     1     5               116.13797   -0.00102
   23 Bend                     3     2     6               116.13797   -0.00102
   24 Bend                     3     2     7               116.13797   -0.00102
   25 Bend                     4     1     5               118.84744    0.00246
   26 Bend                     6     2     7               118.84744    0.00246
   27 Bend                     8     3     9               118.84744    0.00246
   28 Torsion                  1     2     3     8         106.45819   -0.00076
   29 Torsion                  1     2     3     9        -106.45819    0.00076
   30 Torsion                  1     3     2     6        -106.45819    0.00076
   31 Torsion                  1     3     2     7         106.45819   -0.00076
   32 Torsion                  2     1     3     8        -106.45819    0.00076
   33 Torsion                  2     1     3     9         106.45819   -0.00076
   34 Torsion                  2     3     1     4        -106.45819    0.00076
   35 Torsion                  2     3     1     5         106.45819   -0.00076
   36 Torsion                  3     1     2     6         106.45819   -0.00076
   37 Torsion                  3     1     2     7        -106.45819    0.00076
   38 Torsion                  3     2     1     4         106.45819   -0.00076
   39 Torsion                  3     2     1     5        -106.45819    0.00076
   40 Torsion                  4     1     2     6        -147.08363   -0.00153
   41 Torsion                  4     1     2     7          -0.00000   -0.00000
   42 Torsion                  4     1     3     8         147.08363    0.00153
   43 Torsion                  4     1     3     9           0.00000    0.00000
   44 Torsion                  5     1     2     6           0.00000    0.00000
   45 Torsion                  5     1     2     7         147.08363    0.00153
   46 Torsion                  5     1     3     8           0.00000   -0.00000
   47 Torsion                  5     1     3     9        -147.08363   -0.00153
   48 Torsion                  6     2     3     8          -0.00000    0.00000
   49 Torsion                  6     2     3     9         147.08363    0.00153
   50 Torsion                  7     2     3     8        -147.08363   -0.00153
   51 Torsion                  7     2     3     9           0.00000    0.00000

  no constraints, skipping    0.0000000000000000     
  no constraints, skipping    0.0000000000000000     
  no constraints, skipping    0.0000000000000000     
  no constraints, skipping    0.0000000000000000     
  no constraints, skipping    0.0000000000000000     
  no constraints, skipping    0.0000000000000000     
  no constraints, skipping    0.0000000000000000     
  no constraints, skipping    0.0000000000000000     

                                 NWChem DFT Module
                                 -----------------


                               Molecule conformer 0




 Summary of "ao basis" -> "ao basis" (spherical)
 ------------------------------------------------------------------------------
       Tag                 Description            Shells   Functions and Types
 ---------------- ------------------------------  ------  ---------------------
 C                           6-311G                  7       13   4s3p
 H                           6-311G                  3        3   3s


      Symmetry analysis of basis
      --------------------------

        a1'        10
        a1"         0
        a2'         3
        a2"         6
        e'         26
        e"         12

  Caching 1-el integrals 
  Rotation of axis 

            General Information
            -------------------
          SCF calculation type: DFT
          Wavefunction type:  closed shell.
          No. of atoms     :     9
          No. of electrons :    24
           Alpha electrons :    12
            Beta electrons :    12
          Charge           :     0
          Spin multiplicity:     1
          Use of symmetry is: on ; symmetry adaption is: on 
          Maximum number of iterations: ***
          This is a Direct SCF calculation.
          AO basis - number of functions:    57
                     number of shells:    39
          Convergence on energy requested:  1.00D-06
          Convergence on density requested:  1.00D-05
          Convergence on gradient requested:  5.00D-04

              XC Information
              --------------
                         B3LYP Method XC Potential
                     Hartree-Fock (Exact) Exchange  0.200          
                        Slater Exchange Functional  0.800 local    
                    Becke 1988 Exchange Functional  0.720 non-local
              Lee-Yang-Parr Correlation Functional  0.810          
                  VWN I RPA Correlation Functional  0.190 local    

             Grid Information
             ----------------
          Grid used for XC integration:  fine      
          Radial quadrature: Mura-Knowles        
          Angular quadrature: Lebedev. 
          Tag              B.-S. Rad. Rad. Pts. Rad. Cut. Ang. Pts.
          ---              ---------- --------- --------- ---------
          C                   0.70       70           8.0       590
          H                   0.35       60          10.0       590
          Grid pruning is: on 
          Number of quadrature shells:   130
          Spatial weights used:  Erf1

          Convergence Information
          -----------------------
          Convergence aids based upon iterative change in 
          total energy or number of iterations. 
          Levelshifting, if invoked, occurs when the 
          HOMO/LUMO gap drops below (HL_TOL):  1.00D-02
          DIIS, if invoked, will attempt to extrapolate 
          using up to (NFOCK): 10 stored Fock matrices.

                    Damping( 0%)  Levelshifting(0.5)       DIIS
                  --------------- ------------------- ---------------
          dE  on:    start            ASAP                start   
          dE off:    2 iters        *** iters           *** iters 


      Screening Tolerance Information
      -------------------------------
          Density screening/tol_rho:  1.00D-10
          AO Gaussian exp screening on grid/accAOfunc:  14
          CD Gaussian exp screening on grid/accCDfunc:  20
          XC Gaussian exp screening on grid/accXCfunc:  20
          Schwarz screening/accCoul:  1.00D-08

          Performing ZORA calculations
          ----------------------------


      Superposition of Atomic Density Guess
      -------------------------------------

 Sum of atomic energies:        -116.00451404

 Read atomic ZORA corrections from ./C1CC1_mol_9_conformer_0.zora_sf

 Forcing recalculation of ZORA corrections
       Generating atomic ZORA corrections
       ----------------------------------

 In dft_scf:: zora:Knucl= F

 Grid_pts file          = ./C1CC1_mol_9_conformer_0.gridpts.00
 Record size in doubles =  12289        No. of grid_pts per rec  =   3070
 Max. records in memory =      2        Max. recs in file   =     13598


 Wrote atomic ZORA corrections to ./C1CC1_mol_9_conformer_0.zora_sf


 Loading old vectors from job with title :

Molecule conformer 0


      Symmetry analysis of molecular orbitals - initial
      -------------------------------------------------

  Numbering of irreducible representations: 

     1 a1'         2 a1"         3 a2'         4 a2"         5 e'      
     6 e"      

  Orbital symmetries:

     1 a1'         2 e'          3 e'          4 a1'         5 e'      
     6 e'          7 a2"         8 a1'         9 e"         10 e"      
    11 e'         12 e'         13 a1'        14 a2"        15 e'      
    16 e'         17 a2'        18 e"         19 e"         20 e'      
    21 e'         22 a1'     

   Time after variat. SCF:     41.2
   Time prior to 1st pass:     41.2

           Memory utilization after 1st SCF pass: 
           Heap Space remaining (MW):      131.04           131041582
          Stack Space remaining (MW):      131.06           131064900

   convergence    iter        energy       DeltaE   RMS-Dens  Diis-err    time
 ---------------- ----- ----------------- --------- --------- ---------  ------
 d= 0,ls=0.0,diis     1   -117.9572799199 -1.93D+02  6.67D-04  8.87D-04    42.7
 d= 0,ls=0.0,diis     2   -117.9573944282 -1.15D-04  2.45D-04  1.34D-04    44.0
 d= 0,ls=0.0,diis     3   -117.9574015204 -7.09D-06  9.65D-05  8.81D-05    45.2
 d= 0,ls=0.0,diis     4   -117.9574130832 -1.16D-05  2.19D-06  1.49D-08    46.5
 d= 0,ls=0.0,diis     5   -117.9574130860 -2.83D-09  2.66D-07  7.04D-11    48.2
(nogshift,skip_gshiftAOev,done_Fji)=( 1,F,F)


         Total DFT energy =     -117.957413086036
      One electron energy =     -306.044229945515
           Coulomb energy =      131.281483047463
    Exchange-Corr. energy =      -18.545406559690
 Nuclear repulsion energy =       75.350740371706

       Scaling correction =        0.026246091901

 Numeric. integr. density =       23.999999758491

     Total iterative time =      7.0s



                  Occupations of the irreducible representations
                  ----------------------------------------------

                     irrep           alpha         beta
                     --------     --------     --------
                     a1'               3.0          3.0
                     a1"               0.0          0.0
                     a2'               0.0          0.0
                     a2"               1.0          1.0
                     e'                6.0          6.0
                     e"                2.0          2.0


 center of mass
 --------------
 x =   0.00000000 y =   0.00000000 z =   0.00000000

 moments of inertia (a.u.)
 ------------------
          90.685354615571           0.000000000000           0.000000000000
           0.000000000000          90.685354615571           0.000000000000
           0.000000000000           0.000000000000         145.080554047425
 Line search: 
     step= 1.00 grad=-2.1D-03 hess= 5.1D-04 energy=   -117.957413 mode=downhill
 new step= 2.04                   predicted energy=   -117.957961
  no constraints, skipping    0.0000000000000000     
  no constraints, skipping    0.0000000000000000     
  no constraints, skipping    0.0000000000000000     
  no constraints, skipping    0.0000000000000000     
  no constraints, skipping    0.0000000000000000     
  no constraints, skipping    0.0000000000000000     
  no constraints, skipping    0.0000000000000000     
  no constraints, skipping    0.0000000000000000     

          --------
          Step   2
          --------


                         Geometry "geometry" -> "geometry"
                         ---------------------------------

 Output coordinates in angstroms (scale by  1.889725989 to convert to a.u.)

  No.       Tag          Charge          X              Y              Z
 ---- ---------------- ---------- -------------- -------------- --------------
    1 C                    6.0000    -0.85067923     0.22793881     0.00000000
    2 C                    6.0000     0.62274042     0.62274042     0.00000000
    3 C                    6.0000     0.22793881    -0.85067923     0.00000000
    4 H                    1.0000    -1.41497162     0.37914050     0.91303475
    5 H                    1.0000    -1.41497162     0.37914050    -0.91303475
    6 H                    1.0000     1.03583112     1.03583112    -0.91303475
    7 H                    1.0000     1.03583112     1.03583112     0.91303475
    8 H                    1.0000     0.37914050    -1.41497162    -0.91303475
    9 H                    1.0000     0.37914050    -1.41497162     0.91303475

      Atomic Mass 
      ----------- 

      C                 12.000000
      H                  1.007825


 Effective nuclear repulsion energy (a.u.)      75.1406220950

            Nuclear Dipole moment (a.u.) 
            ----------------------------
        X                 Y               Z
 ---------------- ---------------- ----------------
     0.0000000000     0.0000000000     0.0000000000

      Symmetry information
      --------------------

 Group name             D3h       
 Group number             27
 Group order              12
 No. of unique centers     2

      Symmetry unique atoms

     1    4


                                 NWChem DFT Module
                                 -----------------


                               Molecule conformer 0




 Summary of "ao basis" -> "ao basis" (spherical)
 ------------------------------------------------------------------------------
       Tag                 Description            Shells   Functions and Types
 ---------------- ------------------------------  ------  ---------------------
 C                           6-311G                  7       13   4s3p
 H                           6-311G                  3        3   3s


      Symmetry analysis of basis
      --------------------------

        a1'        10
        a1"         0
        a2'         3
        a2"         6
        e'         26
        e"         12

  Caching 1-el integrals 
  Rotation of axis 

            General Information
            -------------------
          SCF calculation type: DFT
          Wavefunction type:  closed shell.
          No. of atoms     :     9
          No. of electrons :    24
           Alpha electrons :    12
            Beta electrons :    12
          Charge           :     0
          Spin multiplicity:     1
          Use of symmetry is: on ; symmetry adaption is: on 
          Maximum number of iterations: ***
          This is a Direct SCF calculation.
          AO basis - number of functions:    57
                     number of shells:    39
          Convergence on energy requested:  1.00D-06
          Convergence on density requested:  1.00D-05
          Convergence on gradient requested:  5.00D-04

              XC Information
              --------------
                         B3LYP Method XC Potential
                     Hartree-Fock (Exact) Exchange  0.200          
                        Slater Exchange Functional  0.800 local    
                    Becke 1988 Exchange Functional  0.720 non-local
              Lee-Yang-Parr Correlation Functional  0.810          
                  VWN I RPA Correlation Functional  0.190 local    

             Grid Information
             ----------------
          Grid used for XC integration:  fine      
          Radial quadrature: Mura-Knowles        
          Angular quadrature: Lebedev. 
          Tag              B.-S. Rad. Rad. Pts. Rad. Cut. Ang. Pts.
          ---              ---------- --------- --------- ---------
          C                   0.70       70           8.0       590
          H                   0.35       60          10.0       590
          Grid pruning is: on 
          Number of quadrature shells:   130
          Spatial weights used:  Erf1

          Convergence Information
          -----------------------
          Convergence aids based upon iterative change in 
          total energy or number of iterations. 
          Levelshifting, if invoked, occurs when the 
          HOMO/LUMO gap drops below (HL_TOL):  1.00D-02
          DIIS, if invoked, will attempt to extrapolate 
          using up to (NFOCK): 10 stored Fock matrices.

                    Damping( 0%)  Levelshifting(0.5)       DIIS
                  --------------- ------------------- ---------------
          dE  on:    start            ASAP                start   
          dE off:    2 iters        *** iters           *** iters 


      Screening Tolerance Information
      -------------------------------
          Density screening/tol_rho:  1.00D-10
          AO Gaussian exp screening on grid/accAOfunc:  14
          CD Gaussian exp screening on grid/accCDfunc:  20
          XC Gaussian exp screening on grid/accXCfunc:  20
          Schwarz screening/accCoul:  1.00D-08

          Performing ZORA calculations
          ----------------------------


      Superposition of Atomic Density Guess
      -------------------------------------

 Sum of atomic energies:        -116.00451404

 Read atomic ZORA corrections from ./C1CC1_mol_9_conformer_0.zora_sf

 Forcing recalculation of ZORA corrections
       Generating atomic ZORA corrections
       ----------------------------------

 In dft_scf:: zora:Knucl= F

 Grid_pts file          = ./C1CC1_mol_9_conformer_0.gridpts.00
 Record size in doubles =  12289        No. of grid_pts per rec  =   3070
 Max. records in memory =      2        Max. recs in file   =     13598


 Wrote atomic ZORA corrections to ./C1CC1_mol_9_conformer_0.zora_sf


 Loading old vectors from job with title :

Molecule conformer 0


      Symmetry analysis of molecular orbitals - initial
      -------------------------------------------------

  Numbering of irreducible representations: 

     1 a1'         2 a1"         3 a2'         4 a2"         5 e'      
     6 e"      

  Orbital symmetries:

     1 a1'         2 e'          3 e'          4 a1'         5 e'      
     6 e'          7 a2"         8 a1'         9 e"         10 e"      
    11 e'         12 e'         13 a1'        14 a2"        15 e'      
    16 e'         17 a2'        18 e"         19 e"         20 e'      
    21 e'         22 a1'     

   Time after variat. SCF:     53.9
   Time prior to 1st pass:     53.9

           Memory utilization after 1st SCF pass: 
           Heap Space remaining (MW):      131.04           131041582
          Stack Space remaining (MW):      131.06           131064900

   convergence    iter        energy       DeltaE   RMS-Dens  Diis-err    time
 ---------------- ----- ----------------- --------- --------- ---------  ------
 d= 0,ls=0.0,diis     1   -117.9578530824 -1.93D+02  6.64D-04  9.34D-04    55.1
 d= 0,ls=0.0,diis     2   -117.9579730077 -1.20D-04  2.51D-04  1.47D-04    56.3
 d= 0,ls=0.0,diis     3   -117.9579806642 -7.66D-06  1.00D-04  9.67D-05    57.4
 d= 0,ls=0.0,diis     4   -117.9579933863 -1.27D-05  2.64D-06  1.56D-08    58.5
 d= 0,ls=0.0,diis     5   -117.9579933893 -2.97D-09  1.87D-07  7.15D-11    59.9
(nogshift,skip_gshiftAOev,done_Fji)=( 1,F,F)


         Total DFT energy =     -117.957993389285
      One electron energy =     -305.637769730781
           Coulomb energy =      131.067670143793
    Exchange-Corr. energy =      -18.528515897287
 Nuclear repulsion energy =       75.140622094991

       Scaling correction =        0.026245625798

 Numeric. integr. density =       23.999999910533

     Total iterative time =      6.0s



                  Occupations of the irreducible representations
                  ----------------------------------------------

                     irrep           alpha         beta
                     --------     --------     --------
                     a1'               3.0          3.0
[...]
(dia2,par1)(k,t,iat1,spin)=(  1,  3,  7,  1)=(    -3.38210374,    -3.38210374,     0.32942356,     0.32942356) ppm
(dia2,par1)(k,t,iat1,spin)=(  2,  3,  7,  1)=(    -3.38356066,    -3.38356066,     0.32949439,     0.32949439) ppm
(dia2,par1)(k,t,iat1,spin)=(  3,  3,  7,  1)=(     1.25674351,     1.25674351,    -1.57453615,    -1.57453615) ppm
 Grid integrated density:      24.000013627790
 Requested integration accuracy:   0.10E-06
dia1(k,t,iat1,ispin)=(  1,  1,  8,  1)=(    19.21468451,    19.21468451) ppm
dia1(k,t,iat1,ispin)=(  1,  2,  8,  1)=(    -2.44939624,    -2.44939624) ppm
dia1(k,t,iat1,ispin)=(  1,  3,  8,  1)=(    -2.98761361,    -2.98761361) ppm
dia1(k,t,iat1,ispin)=(  2,  1,  8,  1)=(    -2.46379183,    -2.46379183) ppm
dia1(k,t,iat1,ispin)=(  2,  2,  8,  1)=(    27.75538798,    27.75538798) ppm
dia1(k,t,iat1,ispin)=(  2,  3,  8,  1)=(    11.17216335,    11.17216335) ppm
dia1(k,t,iat1,ispin)=(  3,  1,  8,  1)=(    -2.89790671,    -2.89790671) ppm
dia1(k,t,iat1,ispin)=(  3,  2,  8,  1)=(    10.79578274,    10.79578274) ppm
dia1(k,t,iat1,ispin)=(  3,  3,  8,  1)=(    32.11109245,    32.11109245) ppm
(dia2,par1)(k,t,iat1,spin)=(  1,  1,  8,  1)=(     5.74587366,     5.74587366,     0.29770384,     0.29770384) ppm
(dia2,par1)(k,t,iat1,spin)=(  2,  1,  8,  1)=(     0.57525120,     0.57525120,     0.11648019,     0.11648019) ppm
(dia2,par1)(k,t,iat1,spin)=(  3,  1,  8,  1)=(     0.87038056,     0.87038056,    -0.33620790,    -0.33620790) ppm
(dia2,par1)(k,t,iat1,spin)=(  1,  2,  8,  1)=(     0.57393367,     0.57393367,     0.12756792,     0.12756792) ppm
(dia2,par1)(k,t,iat1,spin)=(  2,  2,  8,  1)=(     3.76003322,     3.76003322,    -0.14371470,    -0.14371470) ppm
(dia2,par1)(k,t,iat1,spin)=(  3,  2,  8,  1)=(    -3.25268111,    -3.25268111,     1.21376753,     1.21376753) ppm
(dia2,par1)(k,t,iat1,spin)=(  1,  3,  8,  1)=(     1.24919722,     1.24919722,    -0.12045097,    -0.12045097) ppm
(dia2,par1)(k,t,iat1,spin)=(  2,  3,  8,  1)=(    -4.63150648,    -4.63150648,     0.45004583,     0.45004583) ppm
(dia2,par1)(k,t,iat1,spin)=(  3,  3,  8,  1)=(     1.25104016,     1.25104016,    -1.57306924,    -1.57306924) ppm
 Grid integrated density:      24.000013627790
 Requested integration accuracy:   0.10E-06
dia1(k,t,iat1,ispin)=(  1,  1,  9,  1)=(    19.21517815,    19.21517815) ppm
dia1(k,t,iat1,ispin)=(  1,  2,  9,  1)=(    -2.44945225,    -2.44945225) ppm
dia1(k,t,iat1,ispin)=(  1,  3,  9,  1)=(     2.98769854,     2.98769854) ppm
dia1(k,t,iat1,ispin)=(  2,  1,  9,  1)=(    -2.46386666,    -2.46386666) ppm
dia1(k,t,iat1,ispin)=(  2,  2,  9,  1)=(    27.75591533,    27.75591533) ppm
dia1(k,t,iat1,ispin)=(  2,  3,  9,  1)=(   -11.17280869,   -11.17280869) ppm
dia1(k,t,iat1,ispin)=(  3,  1,  9,  1)=(     2.89801577,     2.89801577) ppm
dia1(k,t,iat1,ispin)=(  3,  2,  9,  1)=(   -10.79609488,   -10.79609488) ppm
dia1(k,t,iat1,ispin)=(  3,  3,  9,  1)=(    32.11268862,    32.11268862) ppm
(dia2,par1)(k,t,iat1,spin)=(  1,  1,  9,  1)=(     5.74617264,     5.74617264,     0.29727496,     0.29727496) ppm
(dia2,par1)(k,t,iat1,spin)=(  2,  1,  9,  1)=(     0.57535656,     0.57535656,     0.11646737,     0.11646737) ppm
(dia2,par1)(k,t,iat1,spin)=(  3,  1,  9,  1)=(    -0.87043194,    -0.87043194,     0.33608125,     0.33608125) ppm
(dia2,par1)(k,t,iat1,spin)=(  1,  2,  9,  1)=(     0.57413370,     0.57413370,     0.12739966,     0.12739966) ppm
(dia2,par1)(k,t,iat1,spin)=(  2,  2,  9,  1)=(     3.76033663,     3.76033663,    -0.14375948,    -0.14375948) ppm
(dia2,par1)(k,t,iat1,spin)=(  3,  2,  9,  1)=(     3.25276569,     3.25276569,    -1.21375111,    -1.21375111) ppm
(dia2,par1)(k,t,iat1,spin)=(  1,  3,  9,  1)=(    -1.24941264,    -1.24941264,     0.12044661,     0.12044661) ppm
(dia2,par1)(k,t,iat1,spin)=(  2,  3,  9,  1)=(     4.63166359,     4.63166359,    -0.45004445,    -0.45004445) ppm
(dia2,par1)(k,t,iat1,spin)=(  3,  3,  9,  1)=(     1.25099580,     1.25099580,    -1.57315391,    -1.57315391) ppm
 Grid integrated density:      24.000013627790
 Requested integration accuracy:   0.10E-06

 Wrote ZORA NMR data to ./C1CC1_mol_9_conformer_0.zora_nmrcs

(nogshift,skip_gshiftAOev,done_Fji)=( 1,F,T)


         Total DFT energy =     -117.960040470883
      One electron energy =     -306.305889426192
           Coulomb energy =      131.399858125249
    Exchange-Corr. energy =      -18.544535992089
 Nuclear repulsion energy =       75.454032427367

             COSMO energy =        0.036494394783

       Scaling correction =        0.026374800468

 Numeric. integr. density =       24.000005163333

     Total iterative time =     25.9s


                                   COSMO solvation results
                                   -----------------------

                 gas phase energy =      -117.958420414454
                 sol phase energy =      -117.960040470883
 (electrostatic) solvation energy =         0.001620056428 (    1.02 kcal/mol)

 center of mass
 --------------
 x =   0.00000000 y =   0.00000000 z =   0.00000000

 moments of inertia (a.u.)
 ------------------
          90.210306715496          -0.000000000000           0.000000000000
          -0.000000000000          90.210306715496           0.000000000000
           0.000000000000           0.000000000000         144.977524399257

            Scalar ZORA NMR Shielding
            -------------------------


          -----------------------------------------
          Chemical Shielding Tensors (GIAO, in ppm)
          -----------------------------------------


 Read ZORA NMR data from ./C1CC1_mol_9_conformer_0.zora_nmrcs

    0 giaofock schwarz done =     100.00%
    0 giaofock schwarz done =     100.00%
 Grid integrated density:      24.000005163385
 Requested integration accuracy:   0.10E-06
                                NWChem CPHF Module
                                ------------------



 solvent parameters
 solvname_short: cdcl3   
 solvname_long:  unknown                            
 dielec:       78.4000
 dielecinf:     1.7769

          ---------------
          -cosmo- solvent
          ---------------
 Cosmo: York-Karplus, doi: 10.1021/jp992097l
 dielectric constant -eps-     =  78.40
 screen = (eps-1)/(eps    )    =   0.98724
 surface charge correction     = lagrangian
 -lineq- algorithm             =   0
 -bem- low  level              =   2
 -bem- from -octahedral-
 gaussian surface charge width =   0.98000
 degree of switching           =   1.00000
 switching function tolerance  =   0.00010
 atomic radii = 
 --------------
    1  6.000  2.000
    2  6.000  2.000
    3  6.000  2.000
    4  1.000  1.300
    5  1.000  1.300
    6  1.000  1.300
    7  1.000  1.300
    8  1.000  1.300
    9  1.000  1.300

 solvent accessible surface
 --------------------------

 ---------- ATOMIC COORDINATES (A.U.) ------------ VDWR(ANG.) --
     1   -1.59865275    0.42835771    0.00000000     2.000
     2    1.17029503    1.17029503    0.00000000     2.000
     3    0.42835771   -1.59865275    0.00000000     2.000
     4   -2.67473117    0.71669206    1.71191657     1.300
     5   -2.67473117    0.71669206   -1.71191657     1.300
     6    1.95803911    1.95803911   -1.71191657     1.300
     7    1.95803911    1.95803911    1.71191657     1.300
     8    0.71669206   -2.67473117   -1.71191657     1.300
     9    0.71669206   -2.67473117    1.71191657     1.300
 number of segments per atom =         32
 number of   points per atom =         32
 atom (   nspa,  nppa )
 ----------------------
    1 (     20,     0 )       0
    2 (     18,     0 )       0
    3 (     20,     0 )       0
    4 (     15,     0 )       0
    5 (     15,     0 )       0
    6 (     13,     0 )       0
    7 (     13,     0 )       0
    8 (     15,     0 )       0
    9 (     15,     0 )       0
 number of -cosmo- surface points =      144
 molecular surface =     91.966 angstrom**2
 molecular volume  =     52.565 angstrom**3
 G(cav/disp)       =      1.320 kcal/mol
 ...... end of -cosmo- initialization ......


  scftype          =     RHF 
  nclosed          =       12
  nopen            =        0
  variables        =      540
  # of vectors     =        3
  tolerance        = 0.10D-03
  level shift      = 0.00D+00
  max iterations   =       50
  max subspace     =       30

 Grid integrated density:      24.000005163380
 Requested integration accuracy:   0.10E-06
 SCF residual:    5.1942501661527259E-005


Iterative solution of linear equations
  No. of variables      540
  No. of equations        3
  Maximum subspace       30
        Iterations       50
       Convergence  1.0D-04
        Start time    292.3


   iter   nsub   residual    time
   ----  ------  --------  ---------
     1      3    3.41D-01     293.8
     2      6    5.27D-03     295.2
     3      9    1.82D-04     296.7
     4     12    7.50D-06     298.1

 Wrote CPHF data to ./C1CC1_mol_9_conformer_0.shieldcphf

 Calc. par tensor-> zora
      Atom:    1  H 
        Diamagnetic
     31.5374     -1.8769     -7.0406
     -1.8769     24.9841      1.8807
     -7.0406      1.8807     33.3887

        Paramagnetic
      1.9141      0.2245      1.0354
      0.2245      2.6992     -0.2796
      1.0354     -0.2796      3.2164

        Total Shielding Tensor
     33.4514     -1.6524     -6.0052
     -1.6524     27.6833      1.6011
     -6.0052      1.6011     36.6051

           isotropic =      32.5800
          anisotropy =      13.5445

          Principal Components and Axis System
                 1           2           3
               41.6096     28.8868     27.2435

      1        -0.6060      0.7529      0.2566
      2         0.1615     -0.1994      0.9665
      3         0.7789      0.6272     -0.0007



      Atom:    2  H 
        Diamagnetic
     31.5374     -1.8770      7.0406
     -1.8770     24.9842     -1.8806
      7.0406     -1.8806     33.3887

        Paramagnetic
      1.9141      0.2244     -1.0355
      0.2244      2.6993      0.2795
     -1.0355      0.2795      3.2165

        Total Shielding Tensor
     33.4515     -1.6526      6.0052
     -1.6526     27.6835     -1.6011
      6.0052     -1.6011     36.6052

           isotropic =      32.5801
          anisotropy =      13.5444

          Principal Components and Axis System
                 1           2           3
               41.6097     28.8869     27.2435

      1         0.6060      0.7529      0.2566
      2        -0.1615     -0.1995      0.9665
      3         0.7789     -0.6272      0.0007



      Atom:    3  H 
        Diamagnetic
     28.2778      3.7796     -5.1641
      3.7796     28.2699     -5.1615
     -5.1641     -5.1615     33.4306

        Paramagnetic
      2.2975     -0.4572      0.7715
     -0.4572      2.3021      0.7678
      0.7715      0.7678      3.1943

        Total Shielding Tensor
     30.5753      3.3224     -4.3926
      3.3224     30.5720     -4.3937
     -4.3926     -4.3937     36.6249

           isotropic =      32.5907
          anisotropy =      13.5460

          Principal Components and Axis System
                 1           2           3
               41.6214     28.8996     27.2512

      1        -0.4432      0.5518     -0.7065
      2        -0.4431      0.5503      0.7077
      3         0.7793      0.6267      0.0006



      Atom:    4  H 
        Diamagnetic
     28.2778      3.7796      5.1641
      3.7796     28.2698      5.1615
      5.1641      5.1615     33.4306

        Paramagnetic
      2.2977     -0.4571     -0.7714
     -0.4571      2.3019     -0.7678
     -0.7714     -0.7678      3.1943

        Total Shielding Tensor
     30.5755      3.3224      4.3927
      3.3224     30.5717      4.3937
      4.3927      4.3937     36.6250

           isotropic =      32.5907
          anisotropy =      13.5461

          Principal Components and Axis System
                 1           2           3
               41.6215     28.8995     27.2512

      1         0.4432      0.5519     -0.7064
      2         0.4431      0.5502      0.7078
      3         0.7793     -0.6267     -0.0007



      Atom:    5  H 
        Diamagnetic
     24.9606     -1.8820     -1.8830
     -1.8820     31.5154      7.0419
     -1.8830      7.0419     33.3621

        Paramagnetic
      2.6988      0.2256      0.2829
      0.2256      1.9182     -1.0376
      0.2829     -1.0376      3.2187

        Total Shielding Tensor
     27.6593     -1.6564     -1.6000
     -1.6564     33.4336      6.0042
     -1.6000      6.0042     36.5809

           isotropic =      32.5579
          anisotropy =      13.5440

          Principal Components and Axis System
                 1           2           3
               41.5873     28.8686     27.2179

      1        -0.1616     -0.2005      0.9663
      2         0.6062      0.7524      0.2575
      3         0.7787     -0.6274      0.0000



      Atom:    6  H 
        Diamagnetic
     24.9614     -1.8819      1.8829
     -1.8819     31.5163     -7.0422
      1.8829     -7.0422     33.3637

        Paramagnetic
      2.6990      0.2256     -0.2827
      0.2256      1.9185      1.0374
     -0.2827      1.0374      3.2192

        Total Shielding Tensor
     27.6603     -1.6563      1.6002
     -1.6563     33.4348     -6.0048
      1.6002     -6.0048     36.5829

           isotropic =      32.5593
          anisotropy =      13.5453

          Principal Components and Axis System
                 1           2           3
               41.5895     28.8695     27.2190

      1         0.1615     -0.2005      0.9663
      2        -0.6062      0.7525      0.2574
      3         0.7787      0.6274     -0.0000




 Task  times  cpu:       33.7s     wall:       38.0s


                                NWChem Input Module
                                -------------------


 Summary of allocated global arrays
-----------------------------------
  array 0 => double precision sf 1(57,57),  handle: -987 
  array 1 => double precision sf 1(57,57),  handle: -986 
  array 2 => double precision sf 1(57,57),  handle: -985 
  array 3 => double precision sf 1(57,57),  handle: -984 
  array 4 => double precision sf 1(57,57),  handle: -983 
  array 5 => double precision sf 1(57,57),  handle: -982 
  array 6 => double precision sf 1(57,57),  handle: -981 
  array 7 => double precision sf 1(57,57),  handle: -980 
  array 8 => double precision sf 1(57,57),  handle: -979 
  array 9 => double precision sf 1(57,57),  handle: -978 
  array 10 => double precision sf 1(57,57),  handle: -977 
  array 11 => double precision sf 1(57,57),  handle: -976 
  array 12 => double precision sf 1(57,57),  handle: -975 
  array 13 => double precision sf 1(57,57),  handle: -974 
  array 14 => double precision sf 1(57,57),  handle: -973 
  array 15 => double precision sf 1(57,57),  handle: -972 
  array 16 => double precision sf 1(57,57),  handle: -971 
  array 17 => double precision sf 1(57,57),  handle: -970 
  array 18 => double precision sf 1(57,57),  handle: -969 
  array 19 => double precision sf 1(57,57),  handle: -968 
  array 20 => double precision sf 1(57,57),  handle: -967 
  array 21 => double precision sf 1(57,57),  handle: -966 
  array 22 => double precision sf 1(57,57),  handle: -965 



                         GA Statistics for process    0
                         ------------------------------

       create   destroy   get      put      acc     scatter   gather  read&inc
calls: 4489     4328     1.07e+05 2.13e+04 3.81e+04   60        0     4345     
number of processes/call 0.00e+00 0.00e+00 0.00e+00 0.00e+00 0.00e+00
bytes total:             1.11e+08 2.22e+07 8.21e+07 2.24e+02 0.00e+00 3.48e+04
bytes remote:            9.51e+07 1.74e+07 7.38e+07 -1.12e+02 0.00e+00 0.00e+00
Max memory consumed for GA by this process: 375856 bytes

MA_summarize_allocated_blocks: starting scan ...
MA_summarize_allocated_blocks: scan completed: 0 heap blocks, 0 stack blocks
MA usage statistics:

	allocation statistics:
					      heap	     stack
					      ----	     -----
	current number of blocks	         0	         0
	maximum number of blocks	        66	        59
	current total bytes		         0	         0
	maximum total bytes		   1514256	  24871992
	maximum total K-bytes		      1515	     24872
	maximum total M-bytes		         2	        25


                                     CITATION
                                     --------
                Please cite the following reference when publishing
                           results obtained with NWChem:

          E. Apr, E. J. Bylaska, W. A. de Jong, N. Govind, K. Kowalski,
       T. P. Straatsma, M. Valiev, H. J. J. van Dam, Y. Alexeev, J. Anchell,
       V. Anisimov, F. W. Aquino, R. Atta-Fynn, J. Autschbach, N. P. Bauman,
     J. C. Becca, D. E. Bernholdt, K. Bhaskaran-Nair, S. Bogatko, P. Borowski,
        J. Boschen, J. Brabec, A. Bruner, E. Caut, Y. Chen, G. N. Chuev,
      C. J. Cramer, J. Daily, M. J. O. Deegan, T. H. Dunning Jr., M. Dupuis,
   K. G. Dyall, G. I. Fann, S. A. Fischer, A. Fonari, H. Frchtl, L. Gagliardi,
      J. Garza, N. Gawande, S. Ghosh, K. Glaesemann, A. W. Gtz, J. Hammond,
       V. Helms, E. D. Hermes, K. Hirao, S. Hirata, M. Jacquelin, L. Jensen,
   B. G. Johnson, H. Jnsson, R. A. Kendall, M. Klemm, R. Kobayashi, V. Konkov,
      S. Krishnamoorthy, M. Krishnan, Z. Lin, R. D. Lins, R. J. Littlefield,
      A. J. Logsdail, K. Lopata, W. Ma, A. V. Marenich, J. Martin del Campo,
   D. Mejia-Rodriguez, J. E. Moore, J. M. Mullin, T. Nakajima, D. R. Nascimento,
    J. A. Nichols, P. J. Nichols, J. Nieplocha, A. Otero-de-la-Roza, B. Palmer,
    A. Panyala, T. Pirojsirikul, B. Peng, R. Peverati, J. Pittner, L. Pollack,
   R. M. Richard, P. Sadayappan, G. C. Schatz, W. A. Shelton, D. W. Silverstein,
   D. M. A. Smith, T. A. Soares, D. Song, M. Swart, H. L. Taylor, G. S. Thomas,
            V. Tipparaju, D. G. Truhlar, K. Tsemekhman, T. Van Voorhis,
     . Vzquez-Mayagoitia, P. Verma, O. Villa, A. Vishnu, K. D. Vogiatzis,
        D. Wang, J. H. Weare, M. J. Williamson, T. L. Windus, K. Woliski,
        A. T. Wong, Q. Wu, C. Yang, Q. Yu, M. Zacharias, Z. Zhang, Y. Zhao,
                                and R. J. Harrison
                        "NWChem: Past, present, and future
                         J. Chem. Phys. 152, 184102 (2020)
                               doi:10.1063/5.0004997

                                      AUTHORS
                                      -------
     E. Apra, E. J. Bylaska, N. Govind, K. Kowalski, M. Valiev, W. A. de Jong,
      T. P. Straatsma, H. J. J. van Dam, D. Wang, T. L. Windus, N. P. Bauman,
       A. Panyala, J. Hammond, J. Autschbach, K. Bhaskaran-Nair, J. Brabec,
    K. Lopata, S. A. Fischer, S. Krishnamoorthy, M. Jacquelin, W. Ma, M. Klemm,
       O. Villa, Y. Chen, V. Anisimov, F. Aquino, S. Hirata, M. T. Hackler,
           Eric Hermes, L. Jensen, J. E. Moore, J. C. Becca, V. Konjkov,
            D. Mejia-Rodriguez, T. Risthaus, M. Malagoli, A. Marenich,
   A. Otero-de-la-Roza, J. Mullin, P. Nichols, R. Peverati, J. Pittner, Y. Zhao,
        P.-D. Fan, A. Fonari, M. J. Williamson, R. J. Harrison, J. R. Rehr,
      M. Dupuis, D. Silverstein, D. M. A. Smith, J. Nieplocha, V. Tipparaju,
      M. Krishnan, B. E. Van Kuiken, A. Vazquez-Mayagoitia, M. Swart, Q. Wu,
   T. Van Voorhis, A. A. Auer, M. Nooijen, L. D. Crosby, E. Brown, G. Cisneros,
     G. I. Fann, H. Fruchtl, J. Garza, K. Hirao, R. A. Kendall, J. A. Nichols,
       K. Tsemekhman, K. Wolinski, J. Anchell, D. E. Bernholdt, P. Borowski,
       T. Clark, D. Clerc, H. Dachsel, M. J. O. Deegan, K. Dyall, D. Elwood,
      E. Glendening, M. Gutowski, A. C. Hess, J. Jaffe, B. G. Johnson, J. Ju,
        R. Kobayashi, R. Kutteh, Z. Lin, R. Littlefield, X. Long, B. Meng,
      T. Nakajima, S. Niu, L. Pollack, M. Rosing, K. Glaesemann, G. Sandrone,
      M. Stave, H. Taylor, G. Thomas, J. H. van Lenthe, A. T. Wong, Z. Zhang.

 Total times  cpu:      269.4s     wall:      298.3s
