 argument  1 = C1CC1_mol_8_conformer_0.nw



============================== echo of input deck ==============================
start

title "Molecule conformer 0"

memory total 4000 mb

echo
geometry units angstroms
   C      0.7373    -0.4588    -0.1132
   C     -0.7580    -0.4165     0.1386
   C      0.0204     0.8752    -0.0253
   H      1.0209    -0.7601    -1.1439
   H      1.3462    -0.7123     0.7804
   H     -1.0538    -0.6443     1.1845
   H     -1.3793    -0.6923    -0.7397
   H      0.1956     1.4286     0.9215
   H     -0.1293     1.3806    -1.0029
end


basis spherical
* library 6-311G
end

driver
  maxiter 500
  xyz final
end

relativistic
  zora on
  zora:cutoff_NMR 1d-8
  zora:cutoff 1d-30
end

dft
  direct
  grid fine
  xc B3LYP
  mult 1
  maxiter 1500
  noprint "final vectors analysis" multipole
end

task dft optimize

task dft freq

property
  shielding 6 4 5 6 7 8 9
end

cosmo
   solvent cdcl3
end

task dft property
================================================================================


                                         
                                         


             Northwest Computational Chemistry Package (NWChem) 7.0.2
             --------------------------------------------------------


                    Environmental Molecular Sciences Laboratory
                       Pacific Northwest National Laboratory
                                Richland, WA 99352

                              Copyright (c) 1994-2020
                       Pacific Northwest National Laboratory
                            Battelle Memorial Institute

             NWChem is an open-source computational chemistry package
                        distributed under the terms of the
                      Educational Community License (ECL) 2.0
             A copy of the license is included with this distribution
                              in the LICENSE.TXT file

                                  ACKNOWLEDGMENT
                                  --------------

            This software and its documentation were developed at the
            EMSL at Pacific Northwest National Laboratory, a multiprogram
            national laboratory, operated for the U.S. Department of Energy
            by Battelle under Contract Number DE-AC05-76RL01830. Support
            for this work was provided by the Department of Energy Office
            of Biological and Environmental Research, Office of Basic
            Energy Sciences, and the Office of Advanced Scientific Computing.


           Job information
           ---------------

    hostname        = ponder
    program         = nwchem
    date            = Fri Aug  2 17:10:40 2024

    compiled        = Sat_Apr_09_17:12:10_2022
    source          = /build/nwchem-f1f4gx/nwchem-7.0.2/build-openmpi
    nwchem branch   = 7.0.2
    nwchem revision = N/A
    ga revision     = 5.8.1
    use scalapack   = T
    input           = C1CC1_mol_8_conformer_0.nw
    prefix          = C1CC1_mol_8_conformer_0.
    data base       = ./C1CC1_mol_8_conformer_0.db
    status          = startup
    nproc           =       40
    time left       =     -1s



           Memory information
           ------------------

    heap     =  131071996 doubles =   1000.0 Mbytes
    stack    =  131072001 doubles =   1000.0 Mbytes
    global   =  262144000 doubles =   2000.0 Mbytes (distinct from heap & stack)
    total    =  524287997 doubles =   4000.0 Mbytes
    verify   = yes
    hardfail = no 


           Directory information
           ---------------------

  0 permanent = .
  0 scratch   = .




                                NWChem Input Module
                                -------------------


                               Molecule conformer 0
                               --------------------

 Scaling coordinates for geometry "geometry" by  1.889725989
 (inverse scale =  0.529177249)

 D3H symmetry detected

          ------
          auto-z
          ------
  no constraints, skipping    0.0000000000000000     
  no constraints, skipping    0.0000000000000000     


                             Geometry "geometry" -> ""
                             -------------------------

 Output coordinates in angstroms (scale by  1.889725989 to convert to a.u.)

  No.       Tag          Charge          X              Y              Z
 ---- ---------------- ---------- -------------- -------------- --------------
    1 C                    6.0000    -0.84598001     0.22667966     0.00000000
    2 C                    6.0000     0.61930035     0.61930035     0.00000000
    3 C                    6.0000     0.22667966    -0.84598001     0.00000000
    4 H                    1.0000    -1.35775237     0.36380865    -0.97608974
    5 H                    1.0000    -1.35775237     0.36380865     0.97608974
    6 H                    1.0000     0.99394372     0.99394372     0.97608974
    7 H                    1.0000     0.99394372     0.99394372    -0.97608974
    8 H                    1.0000     0.36380865    -1.35775237     0.97608974
    9 H                    1.0000     0.36380865    -1.35775237    -0.97608974

      Atomic Mass 
      ----------- 

      C                 12.000000
      H                  1.007825


 Effective nuclear repulsion energy (a.u.)      75.1276444455

            Nuclear Dipole moment (a.u.) 
            ----------------------------
        X                 Y               Z
 ---------------- ---------------- ----------------
     0.0000000000    -0.0000000000     0.0000000000

      Symmetry information
      --------------------

 Group name             D3h       
 Group number             27
 Group order              12
 No. of unique centers     2

      Symmetry unique atoms

     1    4



                                Z-matrix (autoz)
                                -------- 

 Units are Angstrom for bonds and degrees for angles

      Type          Name      I     J     K     L     M      Value
      ----------- --------  ----- ----- ----- ----- ----- ----------
    1 Stretch                  1     2                       1.51697
    2 Stretch                  1     3                       1.51697
    3 Stretch                  1     4                       1.11062
    4 Stretch                  1     5                       1.11062
    5 Stretch                  2     3                       1.51697
    6 Stretch                  2     6                       1.11062
    7 Stretch                  2     7                       1.11062
    8 Stretch                  3     8                       1.11062
    9 Stretch                  3     9                       1.11062
   10 Bend                     1     2     3                60.00000
   11 Bend                     1     2     6               114.40240
   12 Bend                     1     2     7               114.40240
   13 Bend                     1     3     2                60.00000
   14 Bend                     1     3     8               114.40240
   15 Bend                     1     3     9               114.40240
   16 Bend                     2     1     3                60.00000
   17 Bend                     2     1     4               114.40240
   18 Bend                     2     1     5               114.40240
   19 Bend                     2     3     8               114.40240
   20 Bend                     2     3     9               114.40240
   21 Bend                     3     1     4               114.40240
   22 Bend                     3     1     5               114.40240
   23 Bend                     3     2     6               114.40240
   24 Bend                     3     2     7               114.40240
   25 Bend                     4     1     5               123.01340
   26 Bend                     6     2     7               123.01340
   27 Bend                     8     3     9               123.01340
   28 Torsion                  1     2     3     8        -105.18443
   29 Torsion                  1     2     3     9         105.18443
   30 Torsion                  1     3     2     6         105.18443
   31 Torsion                  1     3     2     7        -105.18443
   32 Torsion                  2     1     3     8         105.18443
   33 Torsion                  2     1     3     9        -105.18443
   34 Torsion                  2     3     1     4         105.18443
   35 Torsion                  2     3     1     5        -105.18443
   36 Torsion                  3     1     2     6        -105.18443
   37 Torsion                  3     1     2     7         105.18443
   38 Torsion                  3     2     1     4        -105.18443
   39 Torsion                  3     2     1     5         105.18443
   40 Torsion                  4     1     2     6         149.63114
   41 Torsion                  4     1     2     7           0.00000
   42 Torsion                  4     1     3     8        -149.63114
   43 Torsion                  4     1     3     9           0.00000
   44 Torsion                  5     1     2     6          -0.00000
   45 Torsion                  5     1     2     7        -149.63114
   46 Torsion                  5     1     3     8           0.00000
   47 Torsion                  5     1     3     9         149.63114
   48 Torsion                  6     2     3     8           0.00000
   49 Torsion                  6     2     3     9        -149.63114
   50 Torsion                  7     2     3     8         149.63114
   51 Torsion                  7     2     3     9          -0.00000


            XYZ format geometry
            -------------------
     9
 geometry
 C                    -0.84598001     0.22667966     0.00000000
 C                     0.61930035     0.61930035     0.00000000
 C                     0.22667966    -0.84598001     0.00000000
 H                    -1.35775237     0.36380865    -0.97608974
 H                    -1.35775237     0.36380865     0.97608974
 H                     0.99394372     0.99394372     0.97608974
 H                     0.99394372     0.99394372    -0.97608974
 H                     0.36380865    -1.35775237     0.97608974
 H                     0.36380865    -1.35775237    -0.97608974

 ==============================================================================
                                internuclear distances
 ------------------------------------------------------------------------------
       center one      |      center two      | atomic units |  angstroms
 ------------------------------------------------------------------------------
    2 C                |   1 C                |     2.86666  |     1.51697
    3 C                |   1 C                |     2.86666  |     1.51697
    3 C                |   2 C                |     2.86666  |     1.51697
    4 H                |   1 C                |     2.09876  |     1.11062
    5 H                |   1 C                |     2.09876  |     1.11062
    6 H                |   2 C                |     2.09876  |     1.11062
    7 H                |   2 C                |     2.09876  |     1.11062
    8 H                |   3 C                |     2.09876  |     1.11062
    9 H                |   3 C                |     2.09876  |     1.11062
 ------------------------------------------------------------------------------
                         number of included internuclear distances:          9
 ==============================================================================



 ==============================================================================
                                 internuclear angles
 ------------------------------------------------------------------------------
        center 1       |       center 2       |       center 3       |  degrees
 ------------------------------------------------------------------------------
    1 C                |   2 C                |   3 C                |    60.00
    2 C                |   1 C                |   4 H                |   114.40
    2 C                |   1 C                |   5 H                |   114.40
    3 C                |   1 C                |   4 H                |   114.40
    3 C                |   1 C                |   5 H                |   114.40
    4 H                |   1 C                |   5 H                |   123.01
    1 C                |   2 C                |   3 C                |    60.00
    1 C                |   2 C                |   6 H                |   114.40
    1 C                |   2 C                |   7 H                |   114.40
    3 C                |   2 C                |   6 H                |   114.40
    3 C                |   2 C                |   7 H                |   114.40
    6 H                |   2 C                |   7 H                |   123.01
    3 C                |   2 C                |   1 C                |    60.00
    1 C                |   3 C                |   8 H                |   114.40
    1 C                |   3 C                |   9 H                |   114.40
    2 C                |   3 C                |   8 H                |   114.40
    2 C                |   3 C                |   9 H                |   114.40
    8 H                |   3 C                |   9 H                |   123.01
 ------------------------------------------------------------------------------
                            number of included internuclear angles:         18
 ==============================================================================





 Summary of "ao basis" -> "" (spherical)
 ------------------------------------------------------------------------------
       Tag                 Description            Shells   Functions and Types
 ---------------- ------------------------------  ------  ---------------------
 *                           6-311G                   on all atoms 




                           NWChem Geometry Optimization
                           ----------------------------




                               Molecule conformer 0


  no constraints, skipping    0.0000000000000000     
 maximum gradient threshold         (gmax) =   0.000450
 rms gradient threshold             (grms) =   0.000300
 maximum cartesian step threshold   (xmax) =   0.001800
 rms cartesian step threshold       (xrms) =   0.001200
 fixed trust radius                (trust) =   0.300000
 maximum step size to saddle      (sadstp) =   0.100000
 energy precision                  (eprec) =   5.0D-06
 maximum number of steps          (nptopt) =  500
 initial hessian option           (inhess) =    0
 line search option               (linopt) =    1
 hessian update option            (modupd) =    1
 saddle point option              (modsad) =    0
 initial eigen-mode to follow     (moddir) =    0
 initial variable to follow       (vardir) =    0
 follow first negative mode     (firstneg) =    T
 apply conjugacy                    (opcg) =    F
 source of zmatrix                         =   autoz   


          -------------------
          Energy Minimization
          -------------------


 Names of Z-matrix variables 
    1              2              3              4              5         
    6              7              8              9             10         
   11             12             13             14             15         
   16             17             18             19             20         
   21             22             23             24             25         
   26             27             28             29             30         
   31             32             33             34             35         
   36             37             38             39             40         
   41             42             43             44             45         
   46             47             48             49             50         
   51         

 Variables with the same non-blank name are constrained to be equal


 Using diagonal initial Hessian 
 Scaling for Hessian diagonals: bonds = 1.00  angles = 0.25  torsions = 0.10

          --------
          Step   0
          --------


                         Geometry "geometry" -> "geometry"
                         ---------------------------------

 Output coordinates in angstroms (scale by  1.889725989 to convert to a.u.)

  No.       Tag          Charge          X              Y              Z
 ---- ---------------- ---------- -------------- -------------- --------------
    1 C                    6.0000    -0.84598001     0.22667966     0.00000000
    2 C                    6.0000     0.61930035     0.61930035     0.00000000
    3 C                    6.0000     0.22667966    -0.84598001     0.00000000
    4 H                    1.0000    -1.35775237     0.36380865    -0.97608974
    5 H                    1.0000    -1.35775237     0.36380865     0.97608974
    6 H                    1.0000     0.99394372     0.99394372     0.97608974
    7 H                    1.0000     0.99394372     0.99394372    -0.97608974
    8 H                    1.0000     0.36380865    -1.35775237     0.97608974
    9 H                    1.0000     0.36380865    -1.35775237    -0.97608974

      Atomic Mass 
      ----------- 

      C                 12.000000
      H                  1.007825


 Effective nuclear repulsion energy (a.u.)      75.1276444455

            Nuclear Dipole moment (a.u.) 
            ----------------------------
        X                 Y               Z
 ---------------- ---------------- ----------------
     0.0000000000    -0.0000000000     0.0000000000

      Symmetry information
      --------------------

 Group name             D3h       
 Group number             27
 Group order              12
 No. of unique centers     2

      Symmetry unique atoms

     1    4


                                 NWChem DFT Module
                                 -----------------


                               Molecule conformer 0


                      Basis "ao basis" -> "ao basis" (spherical)
                      -----
  C (Carbon)
  ----------
            Exponent  Coefficients 
       -------------- ---------------------------------------------------------
  1 S  4.56324000E+03  0.001967
  1 S  6.82024000E+02  0.015231
  1 S  1.54973000E+02  0.076127
  1 S  4.44553000E+01  0.260801
  1 S  1.30290000E+01  0.616462
  1 S  1.82773000E+00  0.221006

  2 S  2.09642000E+01  0.114660
  2 S  4.80331000E+00  0.919999
  2 S  1.45933000E+00 -0.003031

  3 P  2.09642000E+01  0.040249
  3 P  4.80331000E+00  0.237594
  3 P  1.45933000E+00  0.815854

  4 S  4.83456000E-01  1.000000

  5 P  4.83456000E-01  1.000000

  6 S  1.45585000E-01  1.000000

  7 P  1.45585000E-01  1.000000

  H (Hydrogen)
  ------------
            Exponent  Coefficients 
       -------------- ---------------------------------------------------------
  1 S  3.38650000E+01  0.025494
  1 S  5.09479000E+00  0.190373
  1 S  1.15879000E+00  0.852161

  2 S  3.25840000E-01  1.000000

  3 S  1.02741000E-01  1.000000



 Summary of "ao basis" -> "ao basis" (spherical)
 ------------------------------------------------------------------------------
       Tag                 Description            Shells   Functions and Types
 ---------------- ------------------------------  ------  ---------------------
 C                           6-311G                  7       13   4s3p
 H                           6-311G                  3        3   3s




 Summary of "ao basis" -> "ao basis" (spherical)
 ------------------------------------------------------------------------------
       Tag                 Description            Shells   Functions and Types
 ---------------- ------------------------------  ------  ---------------------
 C                           6-311G                  7       13   4s3p
 H                           6-311G                  3        3   3s


      Symmetry analysis of basis
      --------------------------

        a1'        10
        a1"         0
        a2'         3
        a2"         6
        e'         26
        e"         12

  Caching 1-el integrals 
  Rotation of axis 

            General Information
            -------------------
          SCF calculation type: DFT
          Wavefunction type:  closed shell.
          No. of atoms     :     9
          No. of electrons :    24
           Alpha electrons :    12
            Beta electrons :    12
          Charge           :     0
          Spin multiplicity:     1
          Use of symmetry is: on ; symmetry adaption is: on 
          Maximum number of iterations: ***
          This is a Direct SCF calculation.
          AO basis - number of functions:    57
                     number of shells:    39
          Convergence on energy requested:  1.00D-06
          Convergence on density requested:  1.00D-05
          Convergence on gradient requested:  5.00D-04

              XC Information
              --------------
                         B3LYP Method XC Potential
                     Hartree-Fock (Exact) Exchange  0.200          
                        Slater Exchange Functional  0.800 local    
                    Becke 1988 Exchange Functional  0.720 non-local
              Lee-Yang-Parr Correlation Functional  0.810          
                  VWN I RPA Correlation Functional  0.190 local    

             Grid Information
             ----------------
          Grid used for XC integration:  fine      
          Radial quadrature: Mura-Knowles        
          Angular quadrature: Lebedev. 
          Tag              B.-S. Rad. Rad. Pts. Rad. Cut. Ang. Pts.
          ---              ---------- --------- --------- ---------
          C                   0.70       70           8.0       590
          H                   0.35       60          10.0       590
          Grid pruning is: on 
          Number of quadrature shells:   130
          Spatial weights used:  Erf1

          Convergence Information
          -----------------------
          Convergence aids based upon iterative change in 
          total energy or number of iterations. 
          Levelshifting, if invoked, occurs when the 
          HOMO/LUMO gap drops below (HL_TOL):  1.00D-02
          DIIS, if invoked, will attempt to extrapolate 
          using up to (NFOCK): 10 stored Fock matrices.

                    Damping( 0%)  Levelshifting(0.5)       DIIS
                  --------------- ------------------- ---------------
          dE  on:    start            ASAP                start   
          dE off:    2 iters        *** iters           *** iters 


      Screening Tolerance Information
      -------------------------------
          Density screening/tol_rho:  1.00D-10
          AO Gaussian exp screening on grid/accAOfunc:  14
          CD Gaussian exp screening on grid/accCDfunc:  20
          XC Gaussian exp screening on grid/accXCfunc:  20
          Schwarz screening/accCoul:  1.00D-08

          Performing ZORA calculations
          ----------------------------


      Superposition of Atomic Density Guess
      -------------------------------------

 Sum of atomic energies:        -116.00451404

 Read atomic ZORA corrections from ./C1CC1_mol_8_conformer_0.zora_sf

 dft_zora_read: failed to open./C1CC1_mol_8_conformer_0.zora_sf
 Forcing recalculation of ZORA corrections
       Generating atomic ZORA corrections
       ----------------------------------

 In dft_scf:: zora:Knucl= F

 Grid_pts file          = ./C1CC1_mol_8_conformer_0.gridpts.00
 Record size in doubles =  12289        No. of grid_pts per rec  =   3070
 Max. records in memory =      2        Max. recs in file   =     13598

 Grid integrated density:      23.999995901871
 Requested integration accuracy:   0.10E-06

 Wrote atomic ZORA corrections to ./C1CC1_mol_8_conformer_0.zora_sf


      Superposition of Atomic Density Guess
      -------------------------------------

 Sum of atomic energies:        -116.00451404

      Non-variational initial energy
      ------------------------------

 Total energy =    -118.136836
 1-e energy   =    -302.452052
 2-e energy   =     109.187572
 HOMO         =      -0.346981
 LUMO         =       0.077804


      Symmetry analysis of molecular orbitals - initial
      -------------------------------------------------

  Numbering of irreducible representations: 

     1 a1'         2 a1"         3 a2'         4 a2"         5 e'      
     6 e"      

  Orbital symmetries:

     1 a1'         2 e'          3 e'          4 a1'         5 e'      
     6 e'          7 a2"         8 a1'         9 e"         10 e"      
    11 e'         12 e'         13 a1'        14 a2"        15 e'      
    16 e'         17 a2'        18 e"         19 e"         20 e'      
    21 e'         22 a1'     

   Time after variat. SCF:      4.1
   Time prior to 1st pass:      4.1

           Memory utilization after 1st SCF pass: 
           Heap Space remaining (MW):      131.04           131041580
          Stack Space remaining (MW):      131.06           131064908

   convergence    iter        energy       DeltaE   RMS-Dens  Diis-err    time
 ---------------- ----- ----------------- --------- --------- ---------  ------
 d= 0,ls=0.0,diis     1   -117.9144663901 -1.93D+02  6.25D-03  4.05D-01     5.5
 d= 0,ls=0.0,diis     2   -117.9477019477 -3.32D-02  1.02D-03  1.72D-03     6.8
 d= 0,ls=0.0,diis     3   -117.9478984650 -1.97D-04  2.23D-04  2.03D-04     7.8
 d= 0,ls=0.0,diis     4   -117.9479095288 -1.11D-05  1.22D-04  1.07D-04     9.0
 d= 0,ls=0.0,diis     5   -117.9479238226 -1.43D-05  6.39D-06  6.34D-08    10.3
 d= 0,ls=0.0,diis     6   -117.9479238318 -9.27D-09  1.09D-06  7.72D-10    11.9
(nogshift,skip_gshiftAOev,done_Fji)=( 1,F,F)


         Total DFT energy =     -117.947923831850
      One electron energy =     -305.642817621549
           Coulomb energy =      131.051668013773
    Exchange-Corr. energy =      -18.484418669529
 Nuclear repulsion energy =       75.127644445456

       Scaling correction =        0.026251418934

 Numeric. integr. density =       23.999998109041

     Total iterative time =      7.9s



                  Occupations of the irreducible representations
                  ----------------------------------------------

                     irrep           alpha         beta
                     --------     --------     --------
                     a1'               3.0          3.0
                     a1"               0.0          0.0
                     a2'               0.0          0.0
                     a2"               1.0          1.0
                     e'                6.0          6.0
                     e"                2.0          2.0


 center of mass
 --------------
 x =   0.00000000 y =  -0.00000000 z =   0.00000000

 moments of inertia (a.u.)
 ------------------
          91.213380880784           0.000000000000          -0.000000000000
           0.000000000000          91.213380880784           0.000000000000
          -0.000000000000           0.000000000000         141.279253549180

            General Information
            -------------------
          SCF calculation type: DFT
          Wavefunction type:  closed shell.
          No. of atoms     :     9
          No. of electrons :    24
           Alpha electrons :    12
            Beta electrons :    12
          Charge           :     0
          Spin multiplicity:     1
          Use of symmetry is: on ; symmetry adaption is: on 
          Maximum number of iterations: ***
          This is a Direct SCF calculation.
          AO basis - number of functions:    57
                     number of shells:    39
          Convergence on energy requested:  1.00D-06
          Convergence on density requested:  1.00D-05
          Convergence on gradient requested:  5.00D-04

              XC Information
              --------------
                         B3LYP Method XC Potential
                     Hartree-Fock (Exact) Exchange  0.200          
                        Slater Exchange Functional  0.800 local    
                    Becke 1988 Exchange Functional  0.720 non-local
              Lee-Yang-Parr Correlation Functional  0.810          
                  VWN I RPA Correlation Functional  0.190 local    

             Grid Information
             ----------------
          Grid used for XC integration:  fine      
          Radial quadrature: Mura-Knowles        
          Angular quadrature: Lebedev. 
          Tag              B.-S. Rad. Rad. Pts. Rad. Cut. Ang. Pts.
          ---              ---------- --------- --------- ---------
          C                   0.70       70           8.0       590
          H                   0.35       60          10.0       590
          Grid pruning is: on 
          Number of quadrature shells:   130
          Spatial weights used:  Erf1

          Convergence Information
          -----------------------
          Convergence aids based upon iterative change in 
          total energy or number of iterations. 
          Levelshifting, if invoked, occurs when the 
          HOMO/LUMO gap drops below (HL_TOL):  1.00D-02
          DIIS, if invoked, will attempt to extrapolate 
          using up to (NFOCK): 10 stored Fock matrices.

                    Damping( 0%)  Levelshifting(0.5)       DIIS
                  --------------- ------------------- ---------------
          dE  on:    start            ASAP                start   
          dE off:    2 iters        *** iters           *** iters 


      Screening Tolerance Information
      -------------------------------
          Density screening/tol_rho:  1.00D-10
          AO Gaussian exp screening on grid/accAOfunc:  14
          CD Gaussian exp screening on grid/accCDfunc:  20
          XC Gaussian exp screening on grid/accXCfunc:  20
          Schwarz screening/accCoul:  1.00D-08



                            NWChem DFT Gradient Module
                            --------------------------


                               Molecule conformer 0



  charge          =   0.00
  wavefunction    = closed shell

  Rotation of axis 
  Using symmetry


                         DFT ENERGY GRADIENTS

    atom               coordinates                        gradient
                 x          y          z           x          y          z
   1 C      -1.598670   0.428362   0.000000    0.006799  -0.001822   0.000000
   2 C       1.170308   1.170308   0.000000   -0.004977  -0.004977   0.000000
   3 C       0.428362  -1.598670   0.000000   -0.001822   0.006799   0.000000
   4 H      -2.565780   0.687499  -1.844542    0.002103  -0.000563  -0.023877
   5 H      -2.565780   0.687499   1.844542    0.002103  -0.000563   0.023877
   6 H       1.878281   1.878281   1.844542   -0.001539  -0.001539   0.023877
   7 H       1.878281   1.878281  -1.844542   -0.001539  -0.001539  -0.023877
   8 H       0.687499  -2.565780   1.844542   -0.000563   0.002103   0.023877
   9 H       0.687499  -2.565780  -1.844542   -0.000563   0.002103  -0.023877

                 ----------------------------------------
                 |  Time  |  1-e(secs)   |  2-e(secs)   |
                 ----------------------------------------
                 |  CPU   |       0.00   |       0.01   |
                 ----------------------------------------
                 |  WALL  |       0.00   |       0.01   |
                 ----------------------------------------
  no constraints, skipping    0.0000000000000000     

@ Step       Energy      Delta E   Gmax     Grms     Xrms     Xmax   Walltime
@ ---- ---------------- -------- -------- -------- -------- -------- --------
@    0    -117.94792383  0.0D+00  0.01995  0.00735  0.00000  0.00000     13.1
                                                                    



                                Z-matrix (autoz)
                                -------- 

 Units are Angstrom for bonds and degrees for angles

      Type          Name      I     J     K     L     M      Value     Gradient
      ----------- --------  ----- ----- ----- ----- ----- ---------- ----------
    1 Stretch                  1     2                       1.51697   -0.00658
    2 Stretch                  1     3                       1.51697   -0.00658
    3 Stretch                  1     4                       1.11062    0.01995
    4 Stretch                  1     5                       1.11062    0.01995
    5 Stretch                  2     3                       1.51697   -0.00658
    6 Stretch                  2     6                       1.11062    0.01995
    7 Stretch                  2     7                       1.11062    0.01995
    8 Stretch                  3     8                       1.11062    0.01995
    9 Stretch                  3     9                       1.11062    0.01995
   10 Bend                     1     2     3                60.00000    0.00000
   11 Bend                     1     2     6               114.40240   -0.00221
   12 Bend                     1     2     7               114.40240   -0.00221
   13 Bend                     1     3     2                60.00000   -0.00000
   14 Bend                     1     3     8               114.40240   -0.00221
   15 Bend                     1     3     9               114.40240   -0.00221
   16 Bend                     2     1     3                60.00000   -0.00000
   17 Bend                     2     1     4               114.40240   -0.00221
   18 Bend                     2     1     5               114.40240   -0.00221
   19 Bend                     2     3     8               114.40240   -0.00221
   20 Bend                     2     3     9               114.40240   -0.00221
   21 Bend                     3     1     4               114.40240   -0.00221
   22 Bend                     3     1     5               114.40240   -0.00221
   23 Bend                     3     2     6               114.40240   -0.00221
   24 Bend                     3     2     7               114.40240   -0.00221
   25 Bend                     4     1     5               123.01340    0.00530
   26 Bend                     6     2     7               123.01340    0.00530
   27 Bend                     8     3     9               123.01340    0.00530
   28 Torsion                  1     2     3     8        -105.18443    0.00160
   29 Torsion                  1     2     3     9         105.18443   -0.00160
   30 Torsion                  1     3     2     6         105.18443   -0.00160
   31 Torsion                  1     3     2     7        -105.18443    0.00160
   32 Torsion                  2     1     3     8         105.18443   -0.00160
   33 Torsion                  2     1     3     9        -105.18443    0.00160
   34 Torsion                  2     3     1     4         105.18443   -0.00160
   35 Torsion                  2     3     1     5        -105.18443    0.00160
   36 Torsion                  3     1     2     6        -105.18443    0.00160
   37 Torsion                  3     1     2     7         105.18443   -0.00160
   38 Torsion                  3     2     1     4        -105.18443    0.00160
   39 Torsion                  3     2     1     5         105.18443   -0.00160
   40 Torsion                  4     1     2     6         149.63114    0.00319
   41 Torsion                  4     1     2     7           0.00000    0.00000
   42 Torsion                  4     1     3     8        -149.63114   -0.00319
   43 Torsion                  4     1     3     9           0.00000    0.00000
   44 Torsion                  5     1     2     6          -0.00000   -0.00000
   45 Torsion                  5     1     2     7        -149.63114   -0.00319
   46 Torsion                  5     1     3     8           0.00000   -0.00000
   47 Torsion                  5     1     3     9         149.63114    0.00319
   48 Torsion                  6     2     3     8           0.00000    0.00000
   49 Torsion                  6     2     3     9        -149.63114   -0.00319
   50 Torsion                  7     2     3     8         149.63114    0.00319
   51 Torsion                  7     2     3     9          -0.00000   -0.00000

 Restricting large step in mode   11 eval= 4.4D-02 step=-3.5D-01 new=-3.0D-01
  no constraints, skipping    0.0000000000000000     
  no constraints, skipping    0.0000000000000000     
  no constraints, skipping    0.0000000000000000     
  no constraints, skipping    0.0000000000000000     
  no constraints, skipping    0.0000000000000000     
  no constraints, skipping    0.0000000000000000     
  no constraints, skipping    0.0000000000000000     
  no constraints, skipping    0.0000000000000000     

                                 NWChem DFT Module
                                 -----------------


                               Molecule conformer 0




 Summary of "ao basis" -> "ao basis" (spherical)
 ------------------------------------------------------------------------------
       Tag                 Description            Shells   Functions and Types
 ---------------- ------------------------------  ------  ---------------------
 C                           6-311G                  7       13   4s3p
 H                           6-311G                  3        3   3s


      Symmetry analysis of basis
      --------------------------

        a1'        10
        a1"         0
        a2'         3
        a2"         6
        e'         26
        e"         12

  Caching 1-el integrals 
  Rotation of axis 

            General Information
            -------------------
          SCF calculation type: DFT
          Wavefunction type:  closed shell.
          No. of atoms     :     9
          No. of electrons :    24
           Alpha electrons :    12
            Beta electrons :    12
          Charge           :     0
          Spin multiplicity:     1
          Use of symmetry is: on ; symmetry adaption is: on 
          Maximum number of iterations: ***
          This is a Direct SCF calculation.
          AO basis - number of functions:    57
                     number of shells:    39
          Convergence on energy requested:  1.00D-06
          Convergence on density requested:  1.00D-05
          Convergence on gradient requested:  5.00D-04

              XC Information
              --------------
                         B3LYP Method XC Potential
                     Hartree-Fock (Exact) Exchange  0.200          
                        Slater Exchange Functional  0.800 local    
                    Becke 1988 Exchange Functional  0.720 non-local
              Lee-Yang-Parr Correlation Functional  0.810          
                  VWN I RPA Correlation Functional  0.190 local    

             Grid Information
             ----------------
          Grid used for XC integration:  fine      
          Radial quadrature: Mura-Knowles        
          Angular quadrature: Lebedev. 
          Tag              B.-S. Rad. Rad. Pts. Rad. Cut. Ang. Pts.
          ---              ---------- --------- --------- ---------
          C                   0.70       70           8.0       590
          H                   0.35       60          10.0       590
          Grid pruning is: on 
          Number of quadrature shells:   130
          Spatial weights used:  Erf1

          Convergence Information
          -----------------------
          Convergence aids based upon iterative change in 
          total energy or number of iterations. 
          Levelshifting, if invoked, occurs when the 
          HOMO/LUMO gap drops below (HL_TOL):  1.00D-02
          DIIS, if invoked, will attempt to extrapolate 
          using up to (NFOCK): 10 stored Fock matrices.

                    Damping( 0%)  Levelshifting(0.5)       DIIS
                  --------------- ------------------- ---------------
          dE  on:    start            ASAP                start   
          dE off:    2 iters        *** iters           *** iters 


      Screening Tolerance Information
      -------------------------------
          Density screening/tol_rho:  1.00D-10
          AO Gaussian exp screening on grid/accAOfunc:  14
          CD Gaussian exp screening on grid/accCDfunc:  20
          XC Gaussian exp screening on grid/accXCfunc:  20
          Schwarz screening/accCoul:  1.00D-08

          Performing ZORA calculations
          ----------------------------


      Superposition of Atomic Density Guess
      -------------------------------------

 Sum of atomic energies:        -116.00451404

 Read atomic ZORA corrections from ./C1CC1_mol_8_conformer_0.zora_sf

 Forcing recalculation of ZORA corrections
       Generating atomic ZORA corrections
       ----------------------------------

 In dft_scf:: zora:Knucl= F

 Grid_pts file          = ./C1CC1_mol_8_conformer_0.gridpts.00
 Record size in doubles =  12289        No. of grid_pts per rec  =   3070
 Max. records in memory =      2        Max. recs in file   =     13598

 Grid integrated density:      23.999997147429
 Requested integration accuracy:   0.10E-06

 Wrote atomic ZORA corrections to ./C1CC1_mol_8_conformer_0.zora_sf


 Loading old vectors from job with title :

Molecule conformer 0


      Symmetry analysis of molecular orbitals - initial
      -------------------------------------------------

  Numbering of irreducible representations: 

     1 a1'         2 a1"         3 a2'         4 a2"         5 e'      
     6 e"      

  Orbital symmetries:

     1 a1'         2 e'          3 e'          4 a1'         5 e'      
     6 e'          7 a2"         8 a1'         9 e"         10 e"      
    11 e'         12 e'         13 a1'        14 a2"        15 e'      
    16 e'         17 a2'        18 e"         19 e"         20 e'      
    21 e'         22 a1'     

   Time after variat. SCF:     18.2
   Time prior to 1st pass:     18.2

           Memory utilization after 1st SCF pass: 
           Heap Space remaining (MW):      131.04           131041580
          Stack Space remaining (MW):      131.06           131064908

   convergence    iter        energy       DeltaE   RMS-Dens  Diis-err    time
 ---------------- ----- ----------------- --------- --------- ---------  ------
 d= 0,ls=0.0,diis     1   -117.9542599305 -1.93D+02  2.09D-03  9.49D-03    19.6
 d= 0,ls=0.0,diis     2   -117.9552651185 -1.01D-03  6.67D-04  1.73D-03    21.0
 d= 0,ls=0.0,diis     3   -117.9553945492 -1.29D-04  3.17D-04  7.56D-04    22.2
 d= 0,ls=0.0,diis     4   -117.9554929658 -9.84D-05  3.53D-05  1.30D-06    23.6
 d= 0,ls=0.0,diis     5   -117.9554931521 -1.86D-07  2.24D-06  1.21D-08    24.7
(nogshift,skip_gshiftAOev,done_Fji)=( 1,F,F)


         Total DFT energy =     -117.955493152060
      One electron energy =     -306.234500946236
           Coulomb energy =      131.376540626096
    Exchange-Corr. energy =      -18.541945890650
 Nuclear repulsion energy =       75.444413058730

       Scaling correction =        0.026238454934

 Numeric. integr. density =       23.999999140648

     Total iterative time =      6.6s



                  Occupations of the irreducible representations
                  ----------------------------------------------

                     irrep           alpha         beta
                     --------     --------     --------
                     a1'               3.0          3.0
                     a1"               0.0          0.0
                     a2'               0.0          0.0
                     a2"               1.0          1.0
                     e'                6.0          6.0
                     e"                2.0          2.0


 center of mass
 --------------
 x =   0.00000000 y =   0.00000000 z =   0.00000000

 moments of inertia (a.u.)
 ------------------
          90.557746000321          -0.000000000000           0.000000000000
          -0.000000000000          90.557746000321           0.000000000000
           0.000000000000           0.000000000000         143.457284802413
 Line search: 
     step= 1.00 grad=-1.2D-02 hess= 4.5D-03 energy=   -117.955493 mode=downhill
 new step= 1.33                   predicted energy=   -117.955996
  no constraints, skipping    0.0000000000000000     
  no constraints, skipping    0.0000000000000000     
  no constraints, skipping    0.0000000000000000     
  no constraints, skipping    0.0000000000000000     
  no constraints, skipping    0.0000000000000000     
  no constraints, skipping    0.0000000000000000     
  no constraints, skipping    0.0000000000000000     
  no constraints, skipping    0.0000000000000000     

          --------
          Step   1
          --------


                         Geometry "geometry" -> "geometry"
                         ---------------------------------

 Output coordinates in angstroms (scale by  1.889725989 to convert to a.u.)

  No.       Tag          Charge          X              Y              Z
 ---- ---------------- ---------- -------------- -------------- --------------
    1 C                    6.0000    -0.85284787     0.22851990     0.00000000
    2 C                    6.0000     0.62432797     0.62432797     0.00000000
    3 C                    6.0000     0.22851990    -0.85284787     0.00000000
    4 H                    1.0000    -1.37781103     0.36918335    -0.91978075
    5 H                    1.0000    -1.37781103     0.36918335     0.91978075
    6 H                    1.0000     1.00862768     1.00862768     0.91978075
    7 H                    1.0000     1.00862768     1.00862768    -0.91978075
    8 H                    1.0000     0.36918335    -1.37781103     0.91978075
    9 H                    1.0000     0.36918335    -1.37781103    -0.91978075

      Atomic Mass 
      ----------- 

      C                 12.000000
      H                  1.007825


 Effective nuclear repulsion energy (a.u.)      75.5594166106

            Nuclear Dipole moment (a.u.) 
            ----------------------------
        X                 Y               Z
 ---------------- ---------------- ----------------
    -0.0000000000    -0.0000000000     0.0000000000

      Symmetry information
      --------------------

 Group name             D3h       
 Group number             27
 Group order              12
 No. of unique centers     2

      Symmetry unique atoms

     1    4


                                 NWChem DFT Module
                                 -----------------


                               Molecule conformer 0




 Summary of "ao basis" -> "ao basis" (spherical)
 ------------------------------------------------------------------------------
       Tag                 Description            Shells   Functions and Types
 ---------------- ------------------------------  ------  ---------------------
 C                           6-311G                  7       13   4s3p
 H                           6-311G                  3        3   3s


      Symmetry analysis of basis
      --------------------------

        a1'        10
        a1"         0
        a2'         3
        a2"         6
        e'         26
        e"         12

  Caching 1-el integrals 
  Rotation of axis 

            General Information
            -------------------
          SCF calculation type: DFT
          Wavefunction type:  closed shell.
          No. of atoms     :     9
          No. of electrons :    24
           Alpha electrons :    12
            Beta electrons :    12
          Charge           :     0
          Spin multiplicity:     1
          Use of symmetry is: on ; symmetry adaption is: on 
          Maximum number of iterations: ***
          This is a Direct SCF calculation.
          AO basis - number of functions:    57
                     number of shells:    39
          Convergence on energy requested:  1.00D-06
          Convergence on density requested:  1.00D-05
          Convergence on gradient requested:  5.00D-04

              XC Information
              --------------
                         B3LYP Method XC Potential
                     Hartree-Fock (Exact) Exchange  0.200          
                        Slater Exchange Functional  0.800 local    
                    Becke 1988 Exchange Functional  0.720 non-local
              Lee-Yang-Parr Correlation Functional  0.810          
                  VWN I RPA Correlation Functional  0.190 local    

             Grid Information
             ----------------
          Grid used for XC integration:  fine      
          Radial quadrature: Mura-Knowles        
          Angular quadrature: Lebedev. 
          Tag              B.-S. Rad. Rad. Pts. Rad. Cut. Ang. Pts.
          ---              ---------- --------- --------- ---------
          C                   0.70       70           8.0       590
          H                   0.35       60          10.0       590
          Grid pruning is: on 
          Number of quadrature shells:   130
          Spatial weights used:  Erf1

          Convergence Information
          -----------------------
          Convergence aids based upon iterative change in 
          total energy or number of iterations. 
          Levelshifting, if invoked, occurs when the 
          HOMO/LUMO gap drops below (HL_TOL):  1.00D-02
          DIIS, if invoked, will attempt to extrapolate 
          using up to (NFOCK): 10 stored Fock matrices.

                    Damping( 0%)  Levelshifting(0.5)       DIIS
                  --------------- ------------------- ---------------
          dE  on:    start            ASAP                start   
          dE off:    2 iters        *** iters           *** iters 


      Screening Tolerance Information
      -------------------------------
          Density screening/tol_rho:  1.00D-10
          AO Gaussian exp screening on grid/accAOfunc:  14
          CD Gaussian exp screening on grid/accCDfunc:  20
          XC Gaussian exp screening on grid/accXCfunc:  20
          Schwarz screening/accCoul:  1.00D-08

          Performing ZORA calculations
          ----------------------------


      Superposition of Atomic Density Guess
      -------------------------------------

 Sum of atomic energies:        -116.00451404

 Read atomic ZORA corrections from ./C1CC1_mol_8_conformer_0.zora_sf

 Forcing recalculation of ZORA corrections
       Generating atomic ZORA corrections
       ----------------------------------

 In dft_scf:: zora:Knucl= F

 Grid_pts file          = ./C1CC1_mol_8_conformer_0.gridpts.00
 Record size in doubles =  12289        No. of grid_pts per rec  =   3070
 Max. records in memory =      2        Max. recs in file   =     13598

 Grid integrated density:      23.999997009855
 Requested integration accuracy:   0.10E-06

 Wrote atomic ZORA corrections to ./C1CC1_mol_8_conformer_0.zora_sf


 Loading old vectors from job with title :

Molecule conformer 0


      Symmetry analysis of molecular orbitals - initial
      -------------------------------------------------

  Numbering of irreducible representations: 

     1 a1'         2 a1"         3 a2'         4 a2"         5 e'      
     6 e"      

  Orbital symmetries:

     1 a1'         2 e'          3 e'          4 a1'         5 e'      
     6 e'          7 a2"         8 a1'         9 e"         10 e"      
    11 e'         12 e'         13 a1'        14 a2"        15 e'      
    16 e'         17 a2'        18 e"         19 e"         20 e'      
    21 e'         22 a1'     

   Time after variat. SCF:     29.6
   Time prior to 1st pass:     29.6

           Memory utilization after 1st SCF pass: 
           Heap Space remaining (MW):      131.04           131041580
          Stack Space remaining (MW):      131.06           131064908

   convergence    iter        energy       DeltaE   RMS-Dens  Diis-err    time
 ---------------- ----- ----------------- --------- --------- ---------  ------
 d= 0,ls=0.0,diis     1   -117.9557077401 -1.94D+02  6.79D-04  1.10D-03    30.8
 d= 0,ls=0.0,diis     2   -117.9558237285 -1.16D-04  2.21D-04  1.92D-04    32.1
 d= 0,ls=0.0,diis     3   -117.9558380025 -1.43D-05  1.06D-04  8.41D-05    33.2
 d= 0,ls=0.0,diis     4   -117.9558489136 -1.09D-05  1.19D-05  1.59D-07    34.1
 d= 0,ls=0.0,diis     5   -117.9558489363 -2.27D-08  7.62D-07  1.35D-09    35.4
(nogshift,skip_gshiftAOev,done_Fji)=( 1,F,F)


         Total DFT energy =     -117.955848936299
      One electron energy =     -306.445265663286
           Coulomb energy =      131.491880263897
    Exchange-Corr. energy =      -18.561880147517
 Nuclear repulsion energy =       75.559416610607

       Scaling correction =        0.026238127722

 Numeric. integr. density =       23.999999305723

     Total iterative time =      5.8s



                  Occupations of the irreducible representations
                  ----------------------------------------------

                     irrep           alpha         beta
                     --------     --------     --------
                     a1'               3.0          3.0
                     a1"               0.0          0.0
                     a2'               0.0          0.0
                     a2"               1.0          1.0
                     e'                6.0          6.0
                     e"                2.0          2.0


 center of mass
 --------------
 x =  -0.00000000 y =  -0.00000000 z =   0.00000000

 moments of inertia (a.u.)
 ------------------
          90.346915456849           0.000000000000           0.000000000000
           0.000000000000          90.346915456849           0.000000000000
           0.000000000000           0.000000000000         144.156848475927

            General Information
            -------------------
          SCF calculation type: DFT
          Wavefunction type:  closed shell.
          No. of atoms     :     9
          No. of electrons :    24
           Alpha electrons :    12
            Beta electrons :    12
          Charge           :     0
          Spin multiplicity:     1
          Use of symmetry is: on ; symmetry adaption is: on 
          Maximum number of iterations: ***
          This is a Direct SCF calculation.
          AO basis - number of functions:    57
                     number of shells:    39
          Convergence on energy requested:  1.00D-06
          Convergence on density requested:  1.00D-05
          Convergence on gradient requested:  5.00D-04

              XC Information
              --------------
                         B3LYP Method XC Potential
                     Hartree-Fock (Exact) Exchange  0.200          
                        Slater Exchange Functional  0.800 local    
                    Becke 1988 Exchange Functional  0.720 non-local
              Lee-Yang-Parr Correlation Functional  0.810          
                  VWN I RPA Correlation Functional  0.190 local    

             Grid Information
             ----------------
          Grid used for XC integration:  fine      
          Radial quadrature: Mura-Knowles        
          Angular quadrature: Lebedev. 
          Tag              B.-S. Rad. Rad. Pts. Rad. Cut. Ang. Pts.
          ---              ---------- --------- --------- ---------
          C                   0.70       70           8.0       590
          H                   0.35       60          10.0       590
          Grid pruning is: on 
          Number of quadrature shells:   130
          Spatial weights used:  Erf1

          Convergence Information
          -----------------------
          Convergence aids based upon iterative change in 
          total energy or number of iterations. 
          Levelshifting, if invoked, occurs when the 
          HOMO/LUMO gap drops below (HL_TOL):  1.00D-02
          DIIS, if invoked, will attempt to extrapolate 
          using up to (NFOCK): 10 stored Fock matrices.

                    Damping( 0%)  Levelshifting(0.5)       DIIS
                  --------------- ------------------- ---------------
          dE  on:    start            ASAP                start   
          dE off:    2 iters        *** iters           *** iters 


      Screening Tolerance Information
      -------------------------------
          Density screening/tol_rho:  1.00D-10
          AO Gaussian exp screening on grid/accAOfunc:  14
          CD Gaussian exp screening on grid/accCDfunc:  20
          XC Gaussian exp screening on grid/accXCfunc:  20
          Schwarz screening/accCoul:  1.00D-08



                            NWChem DFT Gradient Module
                            --------------------------


                               Molecule conformer 0



  charge          =   0.00
  wavefunction    = closed shell

  Rotation of axis 
  Using symmetry


                         DFT ENERGY GRADIENTS

    atom               coordinates                        gradient
                 x          y          z           x          y          z
   1 C      -1.611649   0.431840   0.000000   -0.022138   0.005932   0.000000
   2 C       1.179809   1.179809   0.000000    0.016206   0.016206   0.000000
   3 C       0.431840  -1.611649   0.000000    0.005932  -0.022138  -0.000000
   4 H      -2.603685   0.697655  -1.738134    0.009174  -0.002458   0.003184
   5 H      -2.603685   0.697655   1.738134    0.009174  -0.002458  -0.003184
   6 H       1.906030   1.906030   1.738134   -0.006716  -0.006716  -0.003184
   7 H       1.906030   1.906030  -1.738134   -0.006716  -0.006716   0.003184
   8 H       0.697655  -2.603685   1.738134   -0.002458   0.009174  -0.003184
   9 H       0.697655  -2.603685  -1.738134   -0.002458   0.009174   0.003184

                 ----------------------------------------
                 |  Time  |  1-e(secs)   |  2-e(secs)   |
                 ----------------------------------------
                 |  CPU   |       0.00   |       0.02   |
                 ----------------------------------------
                 |  WALL  |       0.00   |       0.02   |
                 ----------------------------------------
  no constraints, skipping    0.0000000000000000     

  Step       Energy      Delta E   Gmax     Grms     Xrms     Xmax   Walltime
  ---- ---------------- -------- -------- -------- -------- -------- --------
@    1    -117.95584894 -7.9D-03  0.00757  0.00284  0.05328  0.10620     36.5
                                                                    



                                Z-matrix (autoz)
                                -------- 

 Units are Angstrom for bonds and degrees for angles

      Type          Name      I     J     K     L     M      Value     Gradient
      ----------- --------  ----- ----- ----- ----- ----- ---------- ----------
    1 Stretch                  1     2                       1.52928    0.00227
    2 Stretch                  1     3                       1.52928    0.00227
    3 Stretch                  1     4                       1.06835   -0.00757
    4 Stretch                  1     5                       1.06835   -0.00757
    5 Stretch                  2     3                       1.52928    0.00227
    6 Stretch                  2     6                       1.06835   -0.00757
    7 Stretch                  2     7                       1.06835   -0.00757
    8 Stretch                  3     8                       1.06835   -0.00757
    9 Stretch                  3     9                       1.06835   -0.00757
   10 Bend                     1     2     3                60.00000    0.00000
   11 Bend                     1     2     6               116.13946   -0.00102
   12 Bend                     1     2     7               116.13946   -0.00102
   13 Bend                     1     3     2                60.00000    0.00000
   14 Bend                     1     3     8               116.13946   -0.00102
   15 Bend                     1     3     9               116.13946   -0.00102
   16 Bend                     2     1     3                60.00000   -0.00000
   17 Bend                     2     1     4               116.13946   -0.00102
   18 Bend                     2     1     5               116.13946   -0.00102
   19 Bend                     2     3     8               116.13946   -0.00102
   20 Bend                     2     3     9               116.13946   -0.00102
   21 Bend                     3     1     4               116.13946   -0.00102
   22 Bend                     3     1     5               116.13946   -0.00102
   23 Bend                     3     2     6               116.13946   -0.00102
   24 Bend                     3     2     7               116.13946   -0.00102
   25 Bend                     4     1     5               118.84385    0.00246
   26 Bend                     6     2     7               118.84385    0.00246
   27 Bend                     8     3     9               118.84385    0.00246
   28 Torsion                  1     2     3     8        -106.45930    0.00076
   29 Torsion                  1     2     3     9         106.45930   -0.00076
   30 Torsion                  1     3     2     6         106.45930   -0.00076
   31 Torsion                  1     3     2     7        -106.45930    0.00076
   32 Torsion                  2     1     3     8         106.45930   -0.00076
   33 Torsion                  2     1     3     9        -106.45930    0.00076
   34 Torsion                  2     3     1     4         106.45930   -0.00076
   35 Torsion                  2     3     1     5        -106.45930    0.00076
   36 Torsion                  3     1     2     6        -106.45930    0.00076
   37 Torsion                  3     1     2     7         106.45930   -0.00076
   38 Torsion                  3     2     1     4        -106.45930    0.00076
   39 Torsion                  3     2     1     5         106.45930   -0.00076
   40 Torsion                  4     1     2     6         147.08140    0.00153
   41 Torsion                  4     1     2     7           0.00000    0.00000
   42 Torsion                  4     1     3     8        -147.08140   -0.00153
   43 Torsion                  4     1     3     9           0.00000   -0.00000
   44 Torsion                  5     1     2     6          -0.00000    0.00000
   45 Torsion                  5     1     2     7        -147.08140   -0.00153
   46 Torsion                  5     1     3     8          -0.00000    0.00000
   47 Torsion                  5     1     3     9         147.08140    0.00153
   48 Torsion                  6     2     3     8           0.00000    0.00000
   49 Torsion                  6     2     3     9        -147.08140   -0.00153
   50 Torsion                  7     2     3     8         147.08140    0.00153
   51 Torsion                  7     2     3     9          -0.00000   -0.00000

  no constraints, skipping    0.0000000000000000     
  no constraints, skipping    0.0000000000000000     
  no constraints, skipping    0.0000000000000000     
  no constraints, skipping    0.0000000000000000     
  no constraints, skipping    0.0000000000000000     
  no constraints, skipping    0.0000000000000000     
  no constraints, skipping    0.0000000000000000     
  no constraints, skipping    0.0000000000000000     

                                 NWChem DFT Module
                                 -----------------


                               Molecule conformer 0




 Summary of "ao basis" -> "ao basis" (spherical)
 ------------------------------------------------------------------------------
       Tag                 Description            Shells   Functions and Types
 ---------------- ------------------------------  ------  ---------------------
 C                           6-311G                  7       13   4s3p
 H                           6-311G                  3        3   3s


      Symmetry analysis of basis
      --------------------------

        a1'        10
        a1"         0
        a2'         3
        a2"         6
        e'         26
        e"         12

  Caching 1-el integrals 
  Rotation of axis 

            General Information
            -------------------
          SCF calculation type: DFT
          Wavefunction type:  closed shell.
          No. of atoms     :     9
          No. of electrons :    24
           Alpha electrons :    12
            Beta electrons :    12
          Charge           :     0
          Spin multiplicity:     1
          Use of symmetry is: on ; symmetry adaption is: on 
          Maximum number of iterations: ***
          This is a Direct SCF calculation.
          AO basis - number of functions:    57
                     number of shells:    39
          Convergence on energy requested:  1.00D-06
          Convergence on density requested:  1.00D-05
          Convergence on gradient requested:  5.00D-04

              XC Information
              --------------
                         B3LYP Method XC Potential
                     Hartree-Fock (Exact) Exchange  0.200          
                        Slater Exchange Functional  0.800 local    
                    Becke 1988 Exchange Functional  0.720 non-local
              Lee-Yang-Parr Correlation Functional  0.810          
                  VWN I RPA Correlation Functional  0.190 local    

             Grid Information
             ----------------
          Grid used for XC integration:  fine      
          Radial quadrature: Mura-Knowles        
          Angular quadrature: Lebedev. 
          Tag              B.-S. Rad. Rad. Pts. Rad. Cut. Ang. Pts.
          ---              ---------- --------- --------- ---------
          C                   0.70       70           8.0       590
          H                   0.35       60          10.0       590
          Grid pruning is: on 
          Number of quadrature shells:   130
          Spatial weights used:  Erf1

          Convergence Information
          -----------------------
          Convergence aids based upon iterative change in 
          total energy or number of iterations. 
          Levelshifting, if invoked, occurs when the 
          HOMO/LUMO gap drops below (HL_TOL):  1.00D-02
          DIIS, if invoked, will attempt to extrapolate 
          using up to (NFOCK): 10 stored Fock matrices.

                    Damping( 0%)  Levelshifting(0.5)       DIIS
                  --------------- ------------------- ---------------
          dE  on:    start            ASAP                start   
          dE off:    2 iters        *** iters           *** iters 


      Screening Tolerance Information
      -------------------------------
          Density screening/tol_rho:  1.00D-10
          AO Gaussian exp screening on grid/accAOfunc:  14
          CD Gaussian exp screening on grid/accCDfunc:  20
          XC Gaussian exp screening on grid/accXCfunc:  20
          Schwarz screening/accCoul:  1.00D-08

          Performing ZORA calculations
          ----------------------------


      Superposition of Atomic Density Guess
      -------------------------------------

 Sum of atomic energies:        -116.00451404

 Read atomic ZORA corrections from ./C1CC1_mol_8_conformer_0.zora_sf

 Forcing recalculation of ZORA corrections
       Generating atomic ZORA corrections
       ----------------------------------

 In dft_scf:: zora:Knucl= F

 Grid_pts file          = ./C1CC1_mol_8_conformer_0.gridpts.00
 Record size in doubles =  12289        No. of grid_pts per rec  =   3070
 Max. records in memory =      2        Max. recs in file   =     13598


 Wrote atomic ZORA corrections to ./C1CC1_mol_8_conformer_0.zora_sf


 Loading old vectors from job with title :

Molecule conformer 0


      Symmetry analysis of molecular orbitals - initial
      -------------------------------------------------

  Numbering of irreducible representations: 

     1 a1'         2 a1"         3 a2'         4 a2"         5 e'      
     6 e"      

  Orbital symmetries:

     1 a1'         2 e'          3 e'          4 a1'         5 e'      
     6 e'          7 a2"         8 a1'         9 e"         10 e"      
    11 e'         12 e'         13 a1'        14 a2"        15 e'      
    16 e'         17 a2'        18 e"         19 e"         20 e'      
    21 e'         22 a1'     

   Time after variat. SCF:     42.5
   Time prior to 1st pass:     42.5

           Memory utilization after 1st SCF pass: 
           Heap Space remaining (MW):      131.04           131041580
          Stack Space remaining (MW):      131.06           131064908

   convergence    iter        energy       DeltaE   RMS-Dens  Diis-err    time
 ---------------- ----- ----------------- --------- --------- ---------  ------
 d= 0,ls=0.0,diis     1   -117.9572812563 -1.93D+02  6.67D-04  8.87D-04    43.8
 d= 0,ls=0.0,diis     2   -117.9573957477 -1.14D-04  2.45D-04  1.34D-04    45.3
 d= 0,ls=0.0,diis     3   -117.9574028549 -7.11D-06  9.66D-05  8.82D-05    46.6
 d= 0,ls=0.0,diis     4   -117.9574144211 -1.16D-05  2.20D-06  1.49D-08    48.2
 d= 0,ls=0.0,diis     5   -117.9574144239 -2.83D-09  2.65D-07  7.01D-11    49.7
(nogshift,skip_gshiftAOev,done_Fji)=( 1,F,F)


         Total DFT energy =     -117.957414423920
      One electron energy =     -306.045686506933
           Coulomb energy =      131.282220483093
    Exchange-Corr. energy =      -18.545435506882
 Nuclear repulsion energy =       75.351487106802

       Scaling correction =        0.026239199188

 Numeric. integr. density =       23.999999663133

     Total iterative time =      7.2s



                  Occupations of the irreducible representations
                  ----------------------------------------------

                     irrep           alpha         beta
                     --------     --------     --------
                     a1'               3.0          3.0
                     a1"               0.0          0.0
                     a2'               0.0          0.0
                     a2"               1.0          1.0
                     e'                6.0          6.0
                     e"                2.0          2.0


 center of mass
 --------------
 x =   0.00000000 y =  -0.00000000 z =   0.00000000

 moments of inertia (a.u.)
 ------------------
          90.683307686583          -0.000000000000           0.000000000000
          -0.000000000000          90.683307686583           0.000000000000
           0.000000000000           0.000000000000         145.077513000438
 Line search: 
     step= 1.00 grad=-2.1D-03 hess= 5.1D-04 energy=   -117.957414 mode=downhill
 new step= 2.04                   predicted energy=   -117.957961
  no constraints, skipping    0.0000000000000000     
  no constraints, skipping    0.0000000000000000     
  no constraints, skipping    0.0000000000000000     
  no constraints, skipping    0.0000000000000000     
  no constraints, skipping    0.0000000000000000     
  no constraints, skipping    0.0000000000000000     
  no constraints, skipping    0.0000000000000000     
  no constraints, skipping    0.0000000000000000     

          --------
          Step   2
          --------


                         Geometry "geometry" -> "geometry"
                         ---------------------------------

 Output coordinates in angstroms (scale by  1.889725989 to convert to a.u.)

  No.       Tag          Charge          X              Y              Z
 ---- ---------------- ---------- -------------- -------------- --------------
    1 C                    6.0000    -0.85066581     0.22793522     0.00000000
    2 C                    6.0000     0.62273059     0.62273059     0.00000000
    3 C                    6.0000     0.22793522    -0.85066581     0.00000000
    4 H                    1.0000    -1.41495399     0.37913578    -0.91303347
    5 H                    1.0000    -1.41495399     0.37913578     0.91303347
    6 H                    1.0000     1.03581821     1.03581821     0.91303347
    7 H                    1.0000     1.03581821     1.03581821    -0.91303347
    8 H                    1.0000     0.37913578    -1.41495399     0.91303347
    9 H                    1.0000     0.37913578    -1.41495399    -0.91303347

      Atomic Mass 
      ----------- 

      C                 12.000000
      H                  1.007825


 Effective nuclear repulsion energy (a.u.)      75.1414909109

            Nuclear Dipole moment (a.u.) 
            ----------------------------
        X                 Y               Z
 ---------------- ---------------- ----------------
     0.0000000000     0.0000000000     0.0000000000

      Symmetry information
      --------------------

 Group name             D3h       
 Group number             27
 Group order              12
 No. of unique centers     2

      Symmetry unique atoms

     1    4


                                 NWChem DFT Module
                                 -----------------


                               Molecule conformer 0




 Summary of "ao basis" -> "ao basis" (spherical)
 ------------------------------------------------------------------------------
       Tag                 Description            Shells   Functions and Types
 ---------------- ------------------------------  ------  ---------------------
 C                           6-311G                  7       13   4s3p
 H                           6-311G                  3        3   3s


      Symmetry analysis of basis
      --------------------------

        a1'        10
        a1"         0
        a2'         3
        a2"         6
        e'         26
        e"         12

  Caching 1-el integrals 
  Rotation of axis 

            General Information
            -------------------
          SCF calculation type: DFT
          Wavefunction type:  closed shell.
          No. of atoms     :     9
          No. of electrons :    24
           Alpha electrons :    12
            Beta electrons :    12
          Charge           :     0
          Spin multiplicity:     1
          Use of symmetry is: on ; symmetry adaption is: on 
          Maximum number of iterations: ***
          This is a Direct SCF calculation.
          AO basis - number of functions:    57
                     number of shells:    39
          Convergence on energy requested:  1.00D-06
          Convergence on density requested:  1.00D-05
          Convergence on gradient requested:  5.00D-04

              XC Information
              --------------
                         B3LYP Method XC Potential
                     Hartree-Fock (Exact) Exchange  0.200          
                        Slater Exchange Functional  0.800 local    
                    Becke 1988 Exchange Functional  0.720 non-local
              Lee-Yang-Parr Correlation Functional  0.810          
                  VWN I RPA Correlation Functional  0.190 local    

             Grid Information
             ----------------
          Grid used for XC integration:  fine      
          Radial quadrature: Mura-Knowles        
          Angular quadrature: Lebedev. 
          Tag              B.-S. Rad. Rad. Pts. Rad. Cut. Ang. Pts.
          ---              ---------- --------- --------- ---------
          C                   0.70       70           8.0       590
          H                   0.35       60          10.0       590
          Grid pruning is: on 
          Number of quadrature shells:   130
          Spatial weights used:  Erf1

          Convergence Information
          -----------------------
          Convergence aids based upon iterative change in 
          total energy or number of iterations. 
          Levelshifting, if invoked, occurs when the 
          HOMO/LUMO gap drops below (HL_TOL):  1.00D-02
          DIIS, if invoked, will attempt to extrapolate 
          using up to (NFOCK): 10 stored Fock matrices.

                    Damping( 0%)  Levelshifting(0.5)       DIIS
                  --------------- ------------------- ---------------
          dE  on:    start            ASAP                start   
          dE off:    2 iters        *** iters           *** iters 


      Screening Tolerance Information
      -------------------------------
          Density screening/tol_rho:  1.00D-10
          AO Gaussian exp screening on grid/accAOfunc:  14
          CD Gaussian exp screening on grid/accCDfunc:  20
          XC Gaussian exp screening on grid/accXCfunc:  20
          Schwarz screening/accCoul:  1.00D-08

          Performing ZORA calculations
          ----------------------------


      Superposition of Atomic Density Guess
      -------------------------------------

 Sum of atomic energies:        -116.00451404

 Read atomic ZORA corrections from ./C1CC1_mol_8_conformer_0.zora_sf

 Forcing recalculation of ZORA corrections
       Generating atomic ZORA corrections
       ----------------------------------

 In dft_scf:: zora:Knucl= F

 Grid_pts file          = ./C1CC1_mol_8_conformer_0.gridpts.00
 Record size in doubles =  12289        No. of grid_pts per rec  =   3070
 Max. records in memory =      2        Max. recs in file   =     13598

 Grid integrated density:      23.999997426790
 Requested integration accuracy:   0.10E-06

 Wrote atomic ZORA corrections to ./C1CC1_mol_8_conformer_0.zora_sf


 Loading old vectors from job with title :

Molecule conformer 0


      Symmetry analysis of molecular orbitals - initial
      -------------------------------------------------

  Numbering of irreducible representations: 

     1 a1'         2 a1"         3 a2'         4 a2"         5 e'      
     6 e"      

  Orbital symmetries:

     1 a1'         2 e'          3 e'          4 a1'         5 e'      
     6 e'          7 a2"         8 a1'         9 e"         10 e"      
    11 e'         12 e'         13 a1'        14 a2"        15 e'      
    16 e'         17 a2'        18 e"         19 e"         20 e'      
    21 e'         22 a1'     

   Time after variat. SCF:     54.8
   Time prior to 1st pass:     54.8

           Memory utilization after 1st SCF pass: 
           Heap Space remaining (MW):      131.04           131041580
          Stack Space remaining (MW):      131.06           131064908

   convergence    iter        energy       DeltaE   RMS-Dens  Diis-err    time
 ---------------- ----- ----------------- --------- --------- ---------  ------
 d= 0,ls=0.0,diis     1   -117.9578537611 -1.93D+02  6.63D-04  9.32D-04    56.3
 d= 0,ls=0.0,diis     2   -117.9579734716 -1.20D-04  2.50D-04  1.47D-04    57.8
 d= 0,ls=0.0,diis     3   -117.9579811306 -7.66D-06  1.00D-04  9.65D-05    59.4
 d= 0,ls=0.0,diis     4   -117.9579938346 -1.27D-05  2.64D-06  1.55D-08    60.6
 d= 0,ls=0.0,diis     5   -117.9579938376 -2.97D-09  1.87D-07  7.14D-11    61.7
(nogshift,skip_gshiftAOev,done_Fji)=( 1,F,F)


         Total DFT energy =     -117.957993837585
      One electron energy =     -305.639468041032
           Coulomb energy =      131.068533407502
    Exchange-Corr. energy =      -18.528550114919
 Nuclear repulsion energy =       75.141490910864

       Scaling correction =        0.026248362148

 Numeric. integr. density =       23.999999682353

     Total iterative time =      7.0s



                  Occupations of the irreducible representations
                  ----------------------------------------------

                     irrep           alpha         beta
                     --------     --------     --------
                     a1'               3.0          3.0
                     a1"               0.0          0.0
                     a2'               0.0          0.0
                     a2"               1.0          1.0
                     e'                6.0          6.0
                     e"                2.0          2.0


 center of mass
 --------------
 x =   0.00000000 y =   0.00000000 z =   0.00000000

[...]
(dia2,par1)(k,t,iat1,spin)=(  1,  3,  7,  1)=(     3.38206779,     3.38206779,    -0.32942491,    -0.32942491) ppm
(dia2,par1)(k,t,iat1,spin)=(  2,  3,  7,  1)=(     3.38347557,     3.38347557,    -0.32952148,    -0.32952148) ppm
(dia2,par1)(k,t,iat1,spin)=(  3,  3,  7,  1)=(     1.25668041,     1.25668041,    -1.57454003,    -1.57454003) ppm
 Grid integrated density:      24.000013627507
 Requested integration accuracy:   0.10E-06
dia1(k,t,iat1,ispin)=(  1,  1,  8,  1)=(    19.21323632,    19.21323632) ppm
dia1(k,t,iat1,ispin)=(  1,  2,  8,  1)=(    -2.44942587,    -2.44942587) ppm
dia1(k,t,iat1,ispin)=(  1,  3,  8,  1)=(     2.98759028,     2.98759028) ppm
dia1(k,t,iat1,ispin)=(  2,  1,  8,  1)=(    -2.46384100,    -2.46384100) ppm
dia1(k,t,iat1,ispin)=(  2,  2,  8,  1)=(    27.75387999,    27.75387999) ppm
dia1(k,t,iat1,ispin)=(  2,  3,  8,  1)=(   -11.17240337,   -11.17240337) ppm
dia1(k,t,iat1,ispin)=(  3,  1,  8,  1)=(     2.89796382,     2.89796382) ppm
dia1(k,t,iat1,ispin)=(  3,  2,  8,  1)=(   -10.79590162,   -10.79590162) ppm
dia1(k,t,iat1,ispin)=(  3,  3,  8,  1)=(    32.11021544,    32.11021544) ppm
(dia2,par1)(k,t,iat1,spin)=(  1,  1,  8,  1)=(     5.74597079,     5.74597079,     0.29753998,     0.29753998) ppm
(dia2,par1)(k,t,iat1,spin)=(  2,  1,  8,  1)=(     0.57531260,     0.57531260,     0.11654397,     0.11654397) ppm
(dia2,par1)(k,t,iat1,spin)=(  3,  1,  8,  1)=(    -0.87040704,    -0.87040704,     0.33608574,     0.33608574) ppm
(dia2,par1)(k,t,iat1,spin)=(  1,  2,  8,  1)=(     0.57408884,     0.57408884,     0.12747628,     0.12747628) ppm
(dia2,par1)(k,t,iat1,spin)=(  2,  2,  8,  1)=(     3.76028863,     3.76028863,    -0.14375665,    -0.14375665) ppm
(dia2,par1)(k,t,iat1,spin)=(  3,  2,  8,  1)=(     3.25267147,     3.25267147,    -1.21377584,    -1.21377584) ppm
(dia2,par1)(k,t,iat1,spin)=(  1,  3,  8,  1)=(    -1.24934578,    -1.24934578,     0.12044569,     0.12044569) ppm
(dia2,par1)(k,t,iat1,spin)=(  2,  3,  8,  1)=(     4.63141217,     4.63141217,    -0.45004219,    -0.45004219) ppm
(dia2,par1)(k,t,iat1,spin)=(  3,  3,  8,  1)=(     1.25097279,     1.25097279,    -1.57308342,    -1.57308342) ppm
 Grid integrated density:      24.000013627507
 Requested integration accuracy:   0.10E-06
dia1(k,t,iat1,ispin)=(  1,  1,  9,  1)=(    19.21655656,    19.21655656) ppm
dia1(k,t,iat1,ispin)=(  1,  2,  9,  1)=(    -2.44936732,    -2.44936732) ppm
dia1(k,t,iat1,ispin)=(  1,  3,  9,  1)=(    -2.98769579,    -2.98769579) ppm
dia1(k,t,iat1,ispin)=(  2,  1,  9,  1)=(    -2.46376178,    -2.46376178) ppm
dia1(k,t,iat1,ispin)=(  2,  2,  9,  1)=(    27.75716070,    27.75716070) ppm
dia1(k,t,iat1,ispin)=(  2,  3,  9,  1)=(    11.17247037,    11.17247037) ppm
dia1(k,t,iat1,ispin)=(  3,  1,  9,  1)=(    -2.89793772,    -2.89793772) ppm
dia1(k,t,iat1,ispin)=(  3,  2,  9,  1)=(    10.79589927,    10.79589927) ppm
dia1(k,t,iat1,ispin)=(  3,  3,  9,  1)=(    32.11369230,    32.11369230) ppm
(dia2,par1)(k,t,iat1,spin)=(  1,  1,  9,  1)=(     5.74610743,     5.74610743,     0.29733567,     0.29733567) ppm
(dia2,par1)(k,t,iat1,spin)=(  2,  1,  9,  1)=(     0.57526917,     0.57526917,     0.11639116,     0.11639116) ppm
(dia2,par1)(k,t,iat1,spin)=(  3,  1,  9,  1)=(     0.87039640,     0.87039640,    -0.33620263,    -0.33620263) ppm
(dia2,par1)(k,t,iat1,spin)=(  1,  2,  9,  1)=(     0.57395266,     0.57395266,     0.12747853,     0.12747853) ppm
(dia2,par1)(k,t,iat1,spin)=(  2,  2,  9,  1)=(     3.76020316,     3.76020316,    -0.14377636,    -0.14377636) ppm
(dia2,par1)(k,t,iat1,spin)=(  3,  2,  9,  1)=(    -3.25274300,    -3.25274300,     1.21374270,     1.21374270) ppm
(dia2,par1)(k,t,iat1,spin)=(  1,  3,  9,  1)=(     1.24925206,     1.24925206,    -0.12045157,    -0.12045157) ppm
(dia2,par1)(k,t,iat1,spin)=(  2,  3,  9,  1)=(    -4.63171271,    -4.63171271,     0.45004687,     0.45004687) ppm
(dia2,par1)(k,t,iat1,spin)=(  3,  3,  9,  1)=(     1.25096984,     1.25096984,    -1.57314601,    -1.57314601) ppm
 Grid integrated density:      24.000013627507
 Requested integration accuracy:   0.10E-06

 Wrote ZORA NMR data to ./C1CC1_mol_8_conformer_0.zora_nmrcs

(nogshift,skip_gshiftAOev,done_Fji)=( 1,F,T)


         Total DFT energy =     -117.960040514454
      One electron energy =     -306.305553895803
           Coulomb energy =      131.399688364756
    Exchange-Corr. energy =      -18.544528599993
 Nuclear repulsion energy =       75.453860406934

             COSMO energy =        0.036493209652

       Scaling correction =        0.026374805331

 Numeric. integr. density =       24.000005163202

     Total iterative time =     31.4s


                                   COSMO solvation results
                                   -----------------------

                 gas phase energy =      -117.958420410968
                 sol phase energy =      -117.960040514454
 (electrostatic) solvation energy =         0.001620103486 (    1.02 kcal/mol)

 center of mass
 --------------
 x =  -0.00000000 y =   0.00000000 z =   0.00000000

 moments of inertia (a.u.)
 ------------------
          90.210769585350          -0.000000000000           0.000000000000
          -0.000000000000          90.210769585350           0.000000000000
           0.000000000000           0.000000000000         144.978151934983

            Scalar ZORA NMR Shielding
            -------------------------


          -----------------------------------------
          Chemical Shielding Tensors (GIAO, in ppm)
          -----------------------------------------


 Read ZORA NMR data from ./C1CC1_mol_8_conformer_0.zora_nmrcs

    0 giaofock schwarz done =     100.00%
    0 giaofock schwarz done =     100.00%
 Grid integrated density:      24.000005163254
 Requested integration accuracy:   0.10E-06
                                NWChem CPHF Module
                                ------------------



 solvent parameters
 solvname_short: cdcl3   
 solvname_long:  unknown                            
 dielec:       78.4000
 dielecinf:     1.7769

          ---------------
          -cosmo- solvent
          ---------------
 Cosmo: York-Karplus, doi: 10.1021/jp992097l
 dielectric constant -eps-     =  78.40
 screen = (eps-1)/(eps    )    =   0.98724
 surface charge correction     = lagrangian
 -lineq- algorithm             =   0
 -bem- low  level              =   2
 -bem- from -octahedral-
 gaussian surface charge width =   0.98000
 degree of switching           =   1.00000
 switching function tolerance  =   0.00010
 atomic radii = 
 --------------
    1  6.000  2.000
    2  6.000  2.000
    3  6.000  2.000
    4  1.000  1.300
    5  1.000  1.300
    6  1.000  1.300
    7  1.000  1.300
    8  1.000  1.300
    9  1.000  1.300

 solvent accessible surface
 --------------------------

 ---------- ATOMIC COORDINATES (A.U.) ------------ VDWR(ANG.) --
     1   -1.59865850    0.42835925    0.00000000     2.000
     2    1.17029924    1.17029924    0.00000000     2.000
     3    0.42835925   -1.59865850    0.00000000     2.000
     4   -2.67472880    0.71669142   -1.71192377     1.300
     5   -2.67472880    0.71669142    1.71192377     1.300
     6    1.95803738    1.95803738    1.71192377     1.300
     7    1.95803738    1.95803738   -1.71192377     1.300
     8    0.71669142   -2.67472880    1.71192377     1.300
     9    0.71669142   -2.67472880   -1.71192377     1.300
 number of segments per atom =         32
 number of   points per atom =         32
 atom (   nspa,  nppa )
 ----------------------
    1 (     20,     0 )       0
    2 (     18,     0 )       0
    3 (     20,     0 )       0
    4 (     15,     0 )       0
    5 (     15,     0 )       0
    6 (     13,     0 )       0
    7 (     13,     0 )       0
    8 (     15,     0 )       0
    9 (     15,     0 )       0
 number of -cosmo- surface points =      144
 molecular surface =     91.966 angstrom**2
 molecular volume  =     52.565 angstrom**3
 G(cav/disp)       =      1.320 kcal/mol
 ...... end of -cosmo- initialization ......


  scftype          =     RHF 
  nclosed          =       12
  nopen            =        0
  variables        =      540
  # of vectors     =        3
  tolerance        = 0.10D-03
  level shift      = 0.00D+00
  max iterations   =       50
  max subspace     =       30

 Grid integrated density:      24.000005163249
 Requested integration accuracy:   0.10E-06
 SCF residual:    5.1943294178039127E-005


Iterative solution of linear equations
  No. of variables      540
  No. of equations        3
  Maximum subspace       30
        Iterations       50
       Convergence  1.0D-04
        Start time    292.4


   iter   nsub   residual    time
   ----  ------  --------  ---------
     1      3    3.41D-01     294.0
     2      6    5.27D-03     295.6
     3      9    1.82D-04     297.3
     4     12    7.50D-06     298.9

 Wrote CPHF data to ./C1CC1_mol_8_conformer_0.shieldcphf

 Calc. par tensor-> zora
      Atom:    1  H 
        Diamagnetic
     31.5373     -1.8770      7.0406
     -1.8770     24.9841     -1.8807
      7.0406     -1.8807     33.3887

        Paramagnetic
      1.9142      0.2245     -1.0355
      0.2245      2.6993      0.2796
     -1.0355      0.2796      3.2164

        Total Shielding Tensor
     33.4514     -1.6525      6.0051
     -1.6525     27.6834     -1.6011
      6.0051     -1.6011     36.6051

           isotropic =      32.5800
          anisotropy =      13.5444

          Principal Components and Axis System
                 1           2           3
               41.6096     28.8869     27.2435

      1         0.6060      0.7529      0.2566
      2        -0.1615     -0.1994      0.9665
      3         0.7789     -0.6272      0.0007



      Atom:    2  H 
        Diamagnetic
     31.5374     -1.8769     -7.0406
     -1.8769     24.9842      1.8806
     -7.0406      1.8806     33.3887

        Paramagnetic
      1.9141      0.2244      1.0354
      0.2244      2.6992     -0.2796
      1.0354     -0.2796      3.2164

        Total Shielding Tensor
     33.4514     -1.6525     -6.0052
     -1.6525     27.6834      1.6011
     -6.0052      1.6011     36.6052

           isotropic =      32.5800
          anisotropy =      13.5445

          Principal Components and Axis System
                 1           2           3
               41.6096     28.8868     27.2435

      1        -0.6060      0.7529      0.2566
      2         0.1615     -0.1995      0.9665
      3         0.7789      0.6272     -0.0007



      Atom:    3  H 
        Diamagnetic
     28.2778      3.7795      5.1641
      3.7795     28.2698      5.1615
      5.1641      5.1615     33.4307

        Paramagnetic
      2.2977     -0.4571     -0.7714
     -0.4571      2.3020     -0.7678
     -0.7714     -0.7678      3.1943

        Total Shielding Tensor
     30.5754      3.3224      4.3927
      3.3224     30.5718      4.3937
      4.3927      4.3937     36.6250

           isotropic =      32.5907
          anisotropy =      13.5461

          Principal Components and Axis System
                 1           2           3
               41.6215     28.8995     27.2512

      1         0.4432      0.5518     -0.7065
      2         0.4431      0.5502      0.7077
      3         0.7793     -0.6267     -0.0007



      Atom:    4  H 
        Diamagnetic
     28.2777      3.7795     -5.1641
      3.7795     28.2699     -5.1615
     -5.1641     -5.1615     33.4306

        Paramagnetic
      2.2976     -0.4572      0.7715
     -0.4572      2.3020      0.7678
      0.7715      0.7678      3.1943

        Total Shielding Tensor
     30.5753      3.3224     -4.3925
      3.3224     30.5719     -4.3937
     -4.3925     -4.3937     36.6249

           isotropic =      32.5907
          anisotropy =      13.5460

          Principal Components and Axis System
                 1           2           3
               41.6213     28.8995     27.2512

      1        -0.4432      0.5518     -0.7065
      2        -0.4431      0.5502      0.7077
      3         0.7793      0.6267      0.0007



      Atom:    5  H 
        Diamagnetic
     24.9592     -1.8819      1.8829
     -1.8819     31.5142     -7.0421
      1.8829     -7.0421     33.3612

        Paramagnetic
      2.6985      0.2256     -0.2828
      0.2256      1.9180      1.0376
     -0.2828      1.0376      3.2188

        Total Shielding Tensor
     27.6577     -1.6563      1.6001
     -1.6563     33.4321     -6.0045
      1.6001     -6.0045     36.5800

           isotropic =      32.5566
          anisotropy =      13.5447

          Principal Components and Axis System
                 1           2           3
               41.5864     28.8670     27.2164

      1         0.1615     -0.2005      0.9663
      2        -0.6062      0.7525      0.2574
      3         0.7787      0.6274     -0.0000



      Atom:    6  H 
        Diamagnetic
     24.9627     -1.8820     -1.8830
     -1.8820     31.5174      7.0420
     -1.8830      7.0420     33.3647

        Paramagnetic
      2.6992      0.2256      0.2829
      0.2256      1.9188     -1.0374
      0.2829     -1.0374      3.2190

        Total Shielding Tensor
     27.6619     -1.6563     -1.6001
     -1.6563     33.4361      6.0045
     -1.6001      6.0045     36.5837

           isotropic =      32.5606
          anisotropy =      13.5445

          Principal Components and Axis System
                 1           2           3
               41.5903     28.8709     27.2205

      1        -0.1616     -0.2005      0.9663
      2         0.6062      0.7524      0.2575
      3         0.7787     -0.6274      0.0000




 Task  times  cpu:       39.5s     wall:       45.0s


                                NWChem Input Module
                                -------------------


 Summary of allocated global arrays
-----------------------------------
  array 0 => double precision sf 1(57,57),  handle: -987 
  array 1 => double precision sf 1(57,57),  handle: -986 
  array 2 => double precision sf 1(57,57),  handle: -985 
  array 3 => double precision sf 1(57,57),  handle: -984 
  array 4 => double precision sf 1(57,57),  handle: -983 
  array 5 => double precision sf 1(57,57),  handle: -982 
  array 6 => double precision sf 1(57,57),  handle: -981 
  array 7 => double precision sf 1(57,57),  handle: -980 
  array 8 => double precision sf 1(57,57),  handle: -979 
  array 9 => double precision sf 1(57,57),  handle: -978 
  array 10 => double precision sf 1(57,57),  handle: -977 
  array 11 => double precision sf 1(57,57),  handle: -976 
  array 12 => double precision sf 1(57,57),  handle: -975 
  array 13 => double precision sf 1(57,57),  handle: -974 
  array 14 => double precision sf 1(57,57),  handle: -973 
  array 15 => double precision sf 1(57,57),  handle: -972 
  array 16 => double precision sf 1(57,57),  handle: -971 
  array 17 => double precision sf 1(57,57),  handle: -970 
  array 18 => double precision sf 1(57,57),  handle: -969 
  array 19 => double precision sf 1(57,57),  handle: -968 
  array 20 => double precision sf 1(57,57),  handle: -967 
  array 21 => double precision sf 1(57,57),  handle: -966 
  array 22 => double precision sf 1(57,57),  handle: -965 



                         GA Statistics for process    0
                         ------------------------------

       create   destroy   get      put      acc     scatter   gather  read&inc
calls: 4489     4328     1.11e+05 2.13e+04 3.83e+04   60        0     4424     
number of processes/call 0.00e+00 0.00e+00 0.00e+00 0.00e+00 0.00e+00
bytes total:             1.10e+08 2.22e+07 8.23e+07 2.24e+02 0.00e+00 3.54e+04
bytes remote:            9.49e+07 1.74e+07 7.42e+07 -1.12e+02 0.00e+00 0.00e+00
Max memory consumed for GA by this process: 375856 bytes

MA_summarize_allocated_blocks: starting scan ...
MA_summarize_allocated_blocks: scan completed: 0 heap blocks, 0 stack blocks
MA usage statistics:

	allocation statistics:
					      heap	     stack
					      ----	     -----
	current number of blocks	         0	         0
	maximum number of blocks	        66	        59
	current total bytes		         0	         0
	maximum total bytes		   1514272	  24872040
	maximum total K-bytes		      1515	     24873
	maximum total M-bytes		         2	        25


                                     CITATION
                                     --------
                Please cite the following reference when publishing
                           results obtained with NWChem:

          E. Apr, E. J. Bylaska, W. A. de Jong, N. Govind, K. Kowalski,
       T. P. Straatsma, M. Valiev, H. J. J. van Dam, Y. Alexeev, J. Anchell,
       V. Anisimov, F. W. Aquino, R. Atta-Fynn, J. Autschbach, N. P. Bauman,
     J. C. Becca, D. E. Bernholdt, K. Bhaskaran-Nair, S. Bogatko, P. Borowski,
        J. Boschen, J. Brabec, A. Bruner, E. Caut, Y. Chen, G. N. Chuev,
      C. J. Cramer, J. Daily, M. J. O. Deegan, T. H. Dunning Jr., M. Dupuis,
   K. G. Dyall, G. I. Fann, S. A. Fischer, A. Fonari, H. Frchtl, L. Gagliardi,
      J. Garza, N. Gawande, S. Ghosh, K. Glaesemann, A. W. Gtz, J. Hammond,
       V. Helms, E. D. Hermes, K. Hirao, S. Hirata, M. Jacquelin, L. Jensen,
   B. G. Johnson, H. Jnsson, R. A. Kendall, M. Klemm, R. Kobayashi, V. Konkov,
      S. Krishnamoorthy, M. Krishnan, Z. Lin, R. D. Lins, R. J. Littlefield,
      A. J. Logsdail, K. Lopata, W. Ma, A. V. Marenich, J. Martin del Campo,
   D. Mejia-Rodriguez, J. E. Moore, J. M. Mullin, T. Nakajima, D. R. Nascimento,
    J. A. Nichols, P. J. Nichols, J. Nieplocha, A. Otero-de-la-Roza, B. Palmer,
    A. Panyala, T. Pirojsirikul, B. Peng, R. Peverati, J. Pittner, L. Pollack,
   R. M. Richard, P. Sadayappan, G. C. Schatz, W. A. Shelton, D. W. Silverstein,
   D. M. A. Smith, T. A. Soares, D. Song, M. Swart, H. L. Taylor, G. S. Thomas,
            V. Tipparaju, D. G. Truhlar, K. Tsemekhman, T. Van Voorhis,
     . Vzquez-Mayagoitia, P. Verma, O. Villa, A. Vishnu, K. D. Vogiatzis,
        D. Wang, J. H. Weare, M. J. Williamson, T. L. Windus, K. Woliski,
        A. T. Wong, Q. Wu, C. Yang, Q. Yu, M. Zacharias, Z. Zhang, Y. Zhao,
                                and R. J. Harrison
                        "NWChem: Past, present, and future
                         J. Chem. Phys. 152, 184102 (2020)
                               doi:10.1063/5.0004997

                                      AUTHORS
                                      -------
     E. Apra, E. J. Bylaska, N. Govind, K. Kowalski, M. Valiev, W. A. de Jong,
      T. P. Straatsma, H. J. J. van Dam, D. Wang, T. L. Windus, N. P. Bauman,
       A. Panyala, J. Hammond, J. Autschbach, K. Bhaskaran-Nair, J. Brabec,
    K. Lopata, S. A. Fischer, S. Krishnamoorthy, M. Jacquelin, W. Ma, M. Klemm,
       O. Villa, Y. Chen, V. Anisimov, F. Aquino, S. Hirata, M. T. Hackler,
           Eric Hermes, L. Jensen, J. E. Moore, J. C. Becca, V. Konjkov,
            D. Mejia-Rodriguez, T. Risthaus, M. Malagoli, A. Marenich,
   A. Otero-de-la-Roza, J. Mullin, P. Nichols, R. Peverati, J. Pittner, Y. Zhao,
        P.-D. Fan, A. Fonari, M. J. Williamson, R. J. Harrison, J. R. Rehr,
      M. Dupuis, D. Silverstein, D. M. A. Smith, J. Nieplocha, V. Tipparaju,
      M. Krishnan, B. E. Van Kuiken, A. Vazquez-Mayagoitia, M. Swart, Q. Wu,
   T. Van Voorhis, A. A. Auer, M. Nooijen, L. D. Crosby, E. Brown, G. Cisneros,
     G. I. Fann, H. Fruchtl, J. Garza, K. Hirao, R. A. Kendall, J. A. Nichols,
       K. Tsemekhman, K. Wolinski, J. Anchell, D. E. Bernholdt, P. Borowski,
       T. Clark, D. Clerc, H. Dachsel, M. J. O. Deegan, K. Dyall, D. Elwood,
      E. Glendening, M. Gutowski, A. C. Hess, J. Jaffe, B. G. Johnson, J. Ju,
        R. Kobayashi, R. Kutteh, Z. Lin, R. Littlefield, X. Long, B. Meng,
      T. Nakajima, S. Niu, L. Pollack, M. Rosing, K. Glaesemann, G. Sandrone,
      M. Stave, H. Taylor, G. Thomas, J. H. van Lenthe, A. T. Wong, Z. Zhang.

 Total times  cpu:      266.3s     wall:      299.2s
