 argument  1 = C1CC1_mol_0_conformer_0.nw



============================== echo of input deck ==============================
start

title "Molecule conformer 0"

memory total 4000 mb

echo
geometry units angstroms
   C      0.8372    -0.2572     0.0071
   C     -0.1973     0.8507     0.0665
   C     -0.6399    -0.5935    -0.0736
   H      1.3096    -0.4966     0.9833
   H      1.3776    -0.3290    -0.9606
   H     -0.2827     1.4491    -0.8652
   H     -0.3506     1.2815     1.0786
   H     -1.0609    -1.0364     0.8539
   H     -0.9929    -0.8687    -1.0900
end


basis spherical
* library 6-311G
end

driver
  maxiter 500
  xyz final
end

relativistic
  zora on
  zora:cutoff_NMR 1d-8
  zora:cutoff 1d-30
end

dft
  direct
  grid fine
  xc B3LYP
  mult 1
  maxiter 1500
  noprint "final vectors analysis" multipole
end

task dft optimize

task dft freq

property
  shielding 6 4 5 6 7 8 9
end

cosmo
   solvent cdcl3
end

task dft property
================================================================================


                                         
                                         


             Northwest Computational Chemistry Package (NWChem) 7.0.2
             --------------------------------------------------------


                    Environmental Molecular Sciences Laboratory
                       Pacific Northwest National Laboratory
                                Richland, WA 99352

                              Copyright (c) 1994-2020
                       Pacific Northwest National Laboratory
                            Battelle Memorial Institute

             NWChem is an open-source computational chemistry package
                        distributed under the terms of the
                      Educational Community License (ECL) 2.0
             A copy of the license is included with this distribution
                              in the LICENSE.TXT file

                                  ACKNOWLEDGMENT
                                  --------------

            This software and its documentation were developed at the
            EMSL at Pacific Northwest National Laboratory, a multiprogram
            national laboratory, operated for the U.S. Department of Energy
            by Battelle under Contract Number DE-AC05-76RL01830. Support
            for this work was provided by the Department of Energy Office
            of Biological and Environmental Research, Office of Basic
            Energy Sciences, and the Office of Advanced Scientific Computing.


           Job information
           ---------------

    hostname        = ponder
    program         = nwchem
    date            = Fri Aug  2 16:35:13 2024

    compiled        = Sat_Apr_09_17:12:10_2022
    source          = /build/nwchem-f1f4gx/nwchem-7.0.2/build-openmpi
    nwchem branch   = 7.0.2
    nwchem revision = N/A
    ga revision     = 5.8.1
    use scalapack   = T
    input           = C1CC1_mol_0_conformer_0.nw
    prefix          = C1CC1_mol_0_conformer_0.
    data base       = ./C1CC1_mol_0_conformer_0.db
    status          = startup
    nproc           =       40
    time left       =     -1s



           Memory information
           ------------------

    heap     =  131071996 doubles =   1000.0 Mbytes
    stack    =  131072001 doubles =   1000.0 Mbytes
    global   =  262144000 doubles =   2000.0 Mbytes (distinct from heap & stack)
    total    =  524287997 doubles =   4000.0 Mbytes
    verify   = yes
    hardfail = no 


           Directory information
           ---------------------

  0 permanent = .
  0 scratch   = .




                                NWChem Input Module
                                -------------------


                               Molecule conformer 0
                               --------------------

 Scaling coordinates for geometry "geometry" by  1.889725989
 (inverse scale =  0.529177249)

 D3H symmetry detected

          ------
          auto-z
          ------
  no constraints, skipping    0.0000000000000000     
  no constraints, skipping    0.0000000000000000     


                             Geometry "geometry" -> ""
                             -------------------------

 Output coordinates in angstroms (scale by  1.889725989 to convert to a.u.)

  No.       Tag          Charge          X              Y              Z
 ---- ---------------- ---------- -------------- -------------- --------------
    1 C                    6.0000     0.22668356    -0.84599456     0.00000000
    2 C                    6.0000     0.61931100     0.61931100     0.00000000
    3 C                    6.0000    -0.84599456     0.22668356     0.00000000
    4 H                    1.0000     0.36380111    -1.35772423     0.97613242
    5 H                    1.0000     0.36380111    -1.35772423    -0.97613242
    6 H                    1.0000     0.99392312     0.99392312    -0.97613242
    7 H                    1.0000     0.99392312     0.99392312     0.97613242
    8 H                    1.0000    -1.35772423     0.36380111     0.97613242
    9 H                    1.0000    -1.35772423     0.36380111    -0.97613242

      Atomic Mass 
      ----------- 

      C                 12.000000
      H                  1.007825


 Effective nuclear repulsion energy (a.u.)      75.1266888336

            Nuclear Dipole moment (a.u.) 
            ----------------------------
        X                 Y               Z
 ---------------- ---------------- ----------------
    -0.0000000000    -0.0000000000     0.0000000000

      Symmetry information
      --------------------

 Group name             D3h       
 Group number             27
 Group order              12
 No. of unique centers     2

      Symmetry unique atoms

     1    4



                                Z-matrix (autoz)
                                -------- 

 Units are Angstrom for bonds and degrees for angles

      Type          Name      I     J     K     L     M      Value
      ----------- --------  ----- ----- ----- ----- ----- ----------
    1 Stretch                  1     2                       1.51700
    2 Stretch                  1     3                       1.51700
    3 Stretch                  1     4                       1.11063
    4 Stretch                  1     5                       1.11063
    5 Stretch                  2     3                       1.51700
    6 Stretch                  2     6                       1.11063
    7 Stretch                  2     7                       1.11063
    8 Stretch                  3     8                       1.11063
    9 Stretch                  3     9                       1.11063
   10 Bend                     1     2     3                60.00000
   11 Bend                     1     2     6               114.39985
   12 Bend                     1     2     7               114.39985
   13 Bend                     1     3     2                60.00000
   14 Bend                     1     3     8               114.39985
   15 Bend                     1     3     9               114.39985
   16 Bend                     2     1     3                60.00000
   17 Bend                     2     1     4               114.39985
   18 Bend                     2     1     5               114.39985
   19 Bend                     2     3     8               114.39985
   20 Bend                     2     3     9               114.39985
   21 Bend                     3     1     4               114.39985
   22 Bend                     3     1     5               114.39985
   23 Bend                     3     2     6               114.39985
   24 Bend                     3     2     7               114.39985
   25 Bend                     4     1     5               123.01951
   26 Bend                     6     2     7               123.01951
   27 Bend                     8     3     9               123.01951
   28 Torsion                  1     2     3     8         105.18259
   29 Torsion                  1     2     3     9        -105.18259
   30 Torsion                  1     3     2     6         105.18259
   31 Torsion                  1     3     2     7        -105.18259
   32 Torsion                  2     1     3     8        -105.18259
   33 Torsion                  2     1     3     9         105.18259
   34 Torsion                  2     3     1     4         105.18259
   35 Torsion                  2     3     1     5        -105.18259
   36 Torsion                  3     1     2     6        -105.18259
   37 Torsion                  3     1     2     7         105.18259
   38 Torsion                  3     2     1     4        -105.18259
   39 Torsion                  3     2     1     5         105.18259
   40 Torsion                  4     1     2     6         149.63483
   41 Torsion                  4     1     2     7           0.00000
   42 Torsion                  4     1     3     8           0.00000
   43 Torsion                  4     1     3     9        -149.63483
   44 Torsion                  5     1     2     6          -0.00000
   45 Torsion                  5     1     2     7        -149.63483
   46 Torsion                  5     1     3     8         149.63483
   47 Torsion                  5     1     3     9           0.00000
   48 Torsion                  6     2     3     8        -149.63483
   49 Torsion                  6     2     3     9           0.00000
   50 Torsion                  7     2     3     8          -0.00000
   51 Torsion                  7     2     3     9         149.63483


            XYZ format geometry
            -------------------
     9
 geometry
 C                     0.22668356    -0.84599456     0.00000000
 C                     0.61931100     0.61931100     0.00000000
 C                    -0.84599456     0.22668356     0.00000000
 H                     0.36380111    -1.35772423     0.97613242
 H                     0.36380111    -1.35772423    -0.97613242
 H                     0.99392312     0.99392312    -0.97613242
 H                     0.99392312     0.99392312     0.97613242
 H                    -1.35772423     0.36380111     0.97613242
 H                    -1.35772423     0.36380111    -0.97613242

 ==============================================================================
                                internuclear distances
 ------------------------------------------------------------------------------
       center one      |      center two      | atomic units |  angstroms
 ------------------------------------------------------------------------------
    2 C                |   1 C                |     2.86671  |     1.51700
    3 C                |   1 C                |     2.86671  |     1.51700
    3 C                |   2 C                |     2.86671  |     1.51700
    4 H                |   1 C                |     2.09879  |     1.11063
    5 H                |   1 C                |     2.09879  |     1.11063
    6 H                |   2 C                |     2.09879  |     1.11063
    7 H                |   2 C                |     2.09879  |     1.11063
    8 H                |   3 C                |     2.09879  |     1.11063
    9 H                |   3 C                |     2.09879  |     1.11063
 ------------------------------------------------------------------------------
                         number of included internuclear distances:          9
 ==============================================================================



 ==============================================================================
                                 internuclear angles
 ------------------------------------------------------------------------------
        center 1       |       center 2       |       center 3       |  degrees
 ------------------------------------------------------------------------------
    1 C                |   2 C                |   3 C                |    60.00
    2 C                |   1 C                |   4 H                |   114.40
    2 C                |   1 C                |   5 H                |   114.40
    3 C                |   1 C                |   4 H                |   114.40
    3 C                |   1 C                |   5 H                |   114.40
    4 H                |   1 C                |   5 H                |   123.02
    1 C                |   2 C                |   3 C                |    60.00
    1 C                |   2 C                |   6 H                |   114.40
    1 C                |   2 C                |   7 H                |   114.40
    3 C                |   2 C                |   6 H                |   114.40
    3 C                |   2 C                |   7 H                |   114.40
    6 H                |   2 C                |   7 H                |   123.02
    3 C                |   2 C                |   1 C                |    60.00
    1 C                |   3 C                |   8 H                |   114.40
    1 C                |   3 C                |   9 H                |   114.40
    2 C                |   3 C                |   8 H                |   114.40
    2 C                |   3 C                |   9 H                |   114.40
    8 H                |   3 C                |   9 H                |   123.02
 ------------------------------------------------------------------------------
                            number of included internuclear angles:         18
 ==============================================================================





 Summary of "ao basis" -> "" (spherical)
 ------------------------------------------------------------------------------
       Tag                 Description            Shells   Functions and Types
 ---------------- ------------------------------  ------  ---------------------
 *                           6-311G                   on all atoms 




                           NWChem Geometry Optimization
                           ----------------------------




                               Molecule conformer 0


  no constraints, skipping    0.0000000000000000     
 maximum gradient threshold         (gmax) =   0.000450
 rms gradient threshold             (grms) =   0.000300
 maximum cartesian step threshold   (xmax) =   0.001800
 rms cartesian step threshold       (xrms) =   0.001200
 fixed trust radius                (trust) =   0.300000
 maximum step size to saddle      (sadstp) =   0.100000
 energy precision                  (eprec) =   5.0D-06
 maximum number of steps          (nptopt) =  500
 initial hessian option           (inhess) =    0
 line search option               (linopt) =    1
 hessian update option            (modupd) =    1
 saddle point option              (modsad) =    0
 initial eigen-mode to follow     (moddir) =    0
 initial variable to follow       (vardir) =    0
 follow first negative mode     (firstneg) =    T
 apply conjugacy                    (opcg) =    F
 source of zmatrix                         =   autoz   


          -------------------
          Energy Minimization
          -------------------


 Names of Z-matrix variables 
    1              2              3              4              5         
    6              7              8              9             10         
   11             12             13             14             15         
   16             17             18             19             20         
   21             22             23             24             25         
   26             27             28             29             30         
   31             32             33             34             35         
   36             37             38             39             40         
   41             42             43             44             45         
   46             47             48             49             50         
   51         

 Variables with the same non-blank name are constrained to be equal


 Using diagonal initial Hessian 
 Scaling for Hessian diagonals: bonds = 1.00  angles = 0.25  torsions = 0.10

          --------
          Step   0
          --------


                         Geometry "geometry" -> "geometry"
                         ---------------------------------

 Output coordinates in angstroms (scale by  1.889725989 to convert to a.u.)

  No.       Tag          Charge          X              Y              Z
 ---- ---------------- ---------- -------------- -------------- --------------
    1 C                    6.0000     0.22668356    -0.84599456     0.00000000
    2 C                    6.0000     0.61931100     0.61931100     0.00000000
    3 C                    6.0000    -0.84599456     0.22668356     0.00000000
    4 H                    1.0000     0.36380111    -1.35772423     0.97613242
    5 H                    1.0000     0.36380111    -1.35772423    -0.97613242
    6 H                    1.0000     0.99392312     0.99392312    -0.97613242
    7 H                    1.0000     0.99392312     0.99392312     0.97613242
    8 H                    1.0000    -1.35772423     0.36380111     0.97613242
    9 H                    1.0000    -1.35772423     0.36380111    -0.97613242

      Atomic Mass 
      ----------- 

      C                 12.000000
      H                  1.007825


 Effective nuclear repulsion energy (a.u.)      75.1266888336

            Nuclear Dipole moment (a.u.) 
            ----------------------------
        X                 Y               Z
 ---------------- ---------------- ----------------
    -0.0000000000    -0.0000000000     0.0000000000

      Symmetry information
      --------------------

 Group name             D3h       
 Group number             27
 Group order              12
 No. of unique centers     2

      Symmetry unique atoms

     1    4


                                 NWChem DFT Module
                                 -----------------


                               Molecule conformer 0


                      Basis "ao basis" -> "ao basis" (spherical)
                      -----
  C (Carbon)
  ----------
            Exponent  Coefficients 
       -------------- ---------------------------------------------------------
  1 S  4.56324000E+03  0.001967
  1 S  6.82024000E+02  0.015231
  1 S  1.54973000E+02  0.076127
  1 S  4.44553000E+01  0.260801
  1 S  1.30290000E+01  0.616462
  1 S  1.82773000E+00  0.221006

  2 S  2.09642000E+01  0.114660
  2 S  4.80331000E+00  0.919999
  2 S  1.45933000E+00 -0.003031

  3 P  2.09642000E+01  0.040249
  3 P  4.80331000E+00  0.237594
  3 P  1.45933000E+00  0.815854

  4 S  4.83456000E-01  1.000000

  5 P  4.83456000E-01  1.000000

  6 S  1.45585000E-01  1.000000

  7 P  1.45585000E-01  1.000000

  H (Hydrogen)
  ------------
            Exponent  Coefficients 
       -------------- ---------------------------------------------------------
  1 S  3.38650000E+01  0.025494
  1 S  5.09479000E+00  0.190373
  1 S  1.15879000E+00  0.852161

  2 S  3.25840000E-01  1.000000

  3 S  1.02741000E-01  1.000000



 Summary of "ao basis" -> "ao basis" (spherical)
 ------------------------------------------------------------------------------
       Tag                 Description            Shells   Functions and Types
 ---------------- ------------------------------  ------  ---------------------
 C                           6-311G                  7       13   4s3p
 H                           6-311G                  3        3   3s




 Summary of "ao basis" -> "ao basis" (spherical)
 ------------------------------------------------------------------------------
       Tag                 Description            Shells   Functions and Types
 ---------------- ------------------------------  ------  ---------------------
 C                           6-311G                  7       13   4s3p
 H                           6-311G                  3        3   3s


      Symmetry analysis of basis
      --------------------------

        a1'        10
        a1"         0
        a2'         3
        a2"         6
        e'         26
        e"         12

  Caching 1-el integrals 
  Rotation of axis 

            General Information
            -------------------
          SCF calculation type: DFT
          Wavefunction type:  closed shell.
          No. of atoms     :     9
          No. of electrons :    24
           Alpha electrons :    12
            Beta electrons :    12
          Charge           :     0
          Spin multiplicity:     1
          Use of symmetry is: on ; symmetry adaption is: on 
          Maximum number of iterations: ***
          This is a Direct SCF calculation.
          AO basis - number of functions:    57
                     number of shells:    39
          Convergence on energy requested:  1.00D-06
          Convergence on density requested:  1.00D-05
          Convergence on gradient requested:  5.00D-04

              XC Information
              --------------
                         B3LYP Method XC Potential
                     Hartree-Fock (Exact) Exchange  0.200          
                        Slater Exchange Functional  0.800 local    
                    Becke 1988 Exchange Functional  0.720 non-local
              Lee-Yang-Parr Correlation Functional  0.810          
                  VWN I RPA Correlation Functional  0.190 local    

             Grid Information
             ----------------
          Grid used for XC integration:  fine      
          Radial quadrature: Mura-Knowles        
          Angular quadrature: Lebedev. 
          Tag              B.-S. Rad. Rad. Pts. Rad. Cut. Ang. Pts.
          ---              ---------- --------- --------- ---------
          C                   0.70       70           8.0       590
          H                   0.35       60          10.0       590
          Grid pruning is: on 
          Number of quadrature shells:   130
          Spatial weights used:  Erf1

          Convergence Information
          -----------------------
          Convergence aids based upon iterative change in 
          total energy or number of iterations. 
          Levelshifting, if invoked, occurs when the 
          HOMO/LUMO gap drops below (HL_TOL):  1.00D-02
          DIIS, if invoked, will attempt to extrapolate 
          using up to (NFOCK): 10 stored Fock matrices.

                    Damping( 0%)  Levelshifting(0.5)       DIIS
                  --------------- ------------------- ---------------
          dE  on:    start            ASAP                start   
          dE off:    2 iters        *** iters           *** iters 


      Screening Tolerance Information
      -------------------------------
          Density screening/tol_rho:  1.00D-10
          AO Gaussian exp screening on grid/accAOfunc:  14
          CD Gaussian exp screening on grid/accCDfunc:  20
          XC Gaussian exp screening on grid/accXCfunc:  20
          Schwarz screening/accCoul:  1.00D-08

          Performing ZORA calculations
          ----------------------------


      Superposition of Atomic Density Guess
      -------------------------------------

 Sum of atomic energies:        -116.00451404

 Read atomic ZORA corrections from ./C1CC1_mol_0_conformer_0.zora_sf

 dft_zora_read: failed to open./C1CC1_mol_0_conformer_0.zora_sf
 Forcing recalculation of ZORA corrections
       Generating atomic ZORA corrections
       ----------------------------------

 In dft_scf:: zora:Knucl= F

 Grid_pts file          = ./C1CC1_mol_0_conformer_0.gridpts.00
 Record size in doubles =  12289        No. of grid_pts per rec  =   3070
 Max. records in memory =      2        Max. recs in file   =     13638

 Grid integrated density:      23.999995896079
 Requested integration accuracy:   0.10E-06

 Wrote atomic ZORA corrections to ./C1CC1_mol_0_conformer_0.zora_sf


      Superposition of Atomic Density Guess
      -------------------------------------

 Sum of atomic energies:        -116.00451404

      Non-variational initial energy
      ------------------------------

 Total energy =    -118.136669
 1-e energy   =    -302.450310
 2-e energy   =     109.186952
 HOMO         =      -0.346965
 LUMO         =       0.077792


      Symmetry analysis of molecular orbitals - initial
      -------------------------------------------------

  Numbering of irreducible representations: 

     1 a1'         2 a1"         3 a2'         4 a2"         5 e'      
     6 e"      

  Orbital symmetries:

     1 a1'         2 e'          3 e'          4 a1'         5 e'      
     6 e'          7 a2"         8 a1'         9 e"         10 e"      
    11 e'         12 e'         13 a1'        14 a2"        15 e'      
    16 e'         17 a2'        18 e"         19 e"         20 e'      
    21 e'         22 a1'     

   Time after variat. SCF:      4.6
   Time prior to 1st pass:      4.6

           Memory utilization after 1st SCF pass: 
           Heap Space remaining (MW):      131.04           131041580
          Stack Space remaining (MW):      131.06           131064908

   convergence    iter        energy       DeltaE   RMS-Dens  Diis-err    time
 ---------------- ----- ----------------- --------- --------- ---------  ------
 d= 0,ls=0.0,diis     1   -117.9144538480 -1.93D+02  6.25D-03  4.05D-01     5.7
 d= 0,ls=0.0,diis     2   -117.9476902465 -3.32D-02  1.02D-03  1.72D-03     6.5
 d= 0,ls=0.0,diis     3   -117.9478866964 -1.96D-04  2.23D-04  2.04D-04     8.1
 d= 0,ls=0.0,diis     4   -117.9478978048 -1.11D-05  1.22D-04  1.07D-04     9.0
 d= 0,ls=0.0,diis     5   -117.9479121179 -1.43D-05  6.39D-06  6.32D-08     9.9
 d= 0,ls=0.0,diis     6   -117.9479121272 -9.24D-09  1.09D-06  7.72D-10    10.8
(nogshift,skip_gshiftAOev,done_Fji)=( 1,F,F)


         Total DFT energy =     -117.947912127184
      One electron energy =     -305.640959793392
           Coulomb energy =      131.050716387604
    Exchange-Corr. energy =      -18.484357554951
 Nuclear repulsion energy =       75.126688833554

       Scaling correction =        0.026251270831

 Numeric. integr. density =       23.999998102910

     Total iterative time =      6.2s



                  Occupations of the irreducible representations
                  ----------------------------------------------

                     irrep           alpha         beta
                     --------     --------     --------
                     a1'               3.0          3.0
                     a1"               0.0          0.0
                     a2'               0.0          0.0
                     a2"               1.0          1.0
                     e'                6.0          6.0
                     e"                2.0          2.0


 center of mass
 --------------
 x =  -0.00000000 y =  -0.00000000 z =   0.00000000

 moments of inertia (a.u.)
 ------------------
          91.215991745088           0.000000000000           0.000000000000
           0.000000000000          91.215991745088           0.000000000000
           0.000000000000           0.000000000000         141.280876810317

            General Information
            -------------------
          SCF calculation type: DFT
          Wavefunction type:  closed shell.
          No. of atoms     :     9
          No. of electrons :    24
           Alpha electrons :    12
            Beta electrons :    12
          Charge           :     0
          Spin multiplicity:     1
          Use of symmetry is: on ; symmetry adaption is: on 
          Maximum number of iterations: ***
          This is a Direct SCF calculation.
          AO basis - number of functions:    57
                     number of shells:    39
          Convergence on energy requested:  1.00D-06
          Convergence on density requested:  1.00D-05
          Convergence on gradient requested:  5.00D-04

              XC Information
              --------------
                         B3LYP Method XC Potential
                     Hartree-Fock (Exact) Exchange  0.200          
                        Slater Exchange Functional  0.800 local    
                    Becke 1988 Exchange Functional  0.720 non-local
              Lee-Yang-Parr Correlation Functional  0.810          
                  VWN I RPA Correlation Functional  0.190 local    

             Grid Information
             ----------------
          Grid used for XC integration:  fine      
          Radial quadrature: Mura-Knowles        
          Angular quadrature: Lebedev. 
          Tag              B.-S. Rad. Rad. Pts. Rad. Cut. Ang. Pts.
          ---              ---------- --------- --------- ---------
          C                   0.70       70           8.0       590
          H                   0.35       60          10.0       590
          Grid pruning is: on 
          Number of quadrature shells:   130
          Spatial weights used:  Erf1

          Convergence Information
          -----------------------
          Convergence aids based upon iterative change in 
          total energy or number of iterations. 
          Levelshifting, if invoked, occurs when the 
          HOMO/LUMO gap drops below (HL_TOL):  1.00D-02
          DIIS, if invoked, will attempt to extrapolate 
          using up to (NFOCK): 10 stored Fock matrices.

                    Damping( 0%)  Levelshifting(0.5)       DIIS
                  --------------- ------------------- ---------------
          dE  on:    start            ASAP                start   
          dE off:    2 iters        *** iters           *** iters 


      Screening Tolerance Information
      -------------------------------
          Density screening/tol_rho:  1.00D-10
          AO Gaussian exp screening on grid/accAOfunc:  14
          CD Gaussian exp screening on grid/accCDfunc:  20
          XC Gaussian exp screening on grid/accXCfunc:  20
          Schwarz screening/accCoul:  1.00D-08



                            NWChem DFT Gradient Module
                            --------------------------


                               Molecule conformer 0



  charge          =   0.00
  wavefunction    = closed shell

  Rotation of axis 
  Using symmetry


                         DFT ENERGY GRADIENTS

    atom               coordinates                        gradient
                 x          y          z           x          y          z
   1 C       0.428370  -1.598698   0.000000   -0.001818   0.006785   0.000000
   2 C       1.170328   1.170328   0.000000   -0.004967  -0.004967   0.000000
   3 C      -1.598698   0.428370   0.000000    0.006785  -0.001818   0.000000
   4 H       0.687484  -2.565727   1.844623   -0.000564   0.002105   0.023890
   5 H       0.687484  -2.565727  -1.844623   -0.000564   0.002105  -0.023890
   6 H       1.878242   1.878242  -1.844623   -0.001541  -0.001541  -0.023890
   7 H       1.878242   1.878242   1.844623   -0.001541  -0.001541   0.023890
   8 H      -2.565727   0.687484   1.844623    0.002105  -0.000564   0.023890
   9 H      -2.565727   0.687484  -1.844623    0.002105  -0.000564  -0.023890

                 ----------------------------------------
                 |  Time  |  1-e(secs)   |  2-e(secs)   |
                 ----------------------------------------
                 |  CPU   |       0.00   |       0.02   |
                 ----------------------------------------
                 |  WALL  |       0.00   |       0.02   |
                 ----------------------------------------
  no constraints, skipping    0.0000000000000000     

@ Step       Energy      Delta E   Gmax     Grms     Xrms     Xmax   Walltime
@ ---- ---------------- -------- -------- -------- -------- -------- --------
@    0    -117.94791213  0.0D+00  0.01996  0.00735  0.00000  0.00000     11.8
                                                                    



                                Z-matrix (autoz)
                                -------- 

 Units are Angstrom for bonds and degrees for angles

      Type          Name      I     J     K     L     M      Value     Gradient
      ----------- --------  ----- ----- ----- ----- ----- ---------- ----------
    1 Stretch                  1     2                       1.51700   -0.00657
    2 Stretch                  1     3                       1.51700   -0.00657
    3 Stretch                  1     4                       1.11063    0.01996
    4 Stretch                  1     5                       1.11063    0.01996
    5 Stretch                  2     3                       1.51700   -0.00657
    6 Stretch                  2     6                       1.11063    0.01996
    7 Stretch                  2     7                       1.11063    0.01996
    8 Stretch                  3     8                       1.11063    0.01996
    9 Stretch                  3     9                       1.11063    0.01996
   10 Bend                     1     2     3                60.00000    0.00000
   11 Bend                     1     2     6               114.39985   -0.00222
   12 Bend                     1     2     7               114.39985   -0.00222
   13 Bend                     1     3     2                60.00000   -0.00000
   14 Bend                     1     3     8               114.39985   -0.00222
   15 Bend                     1     3     9               114.39985   -0.00222
   16 Bend                     2     1     3                60.00000    0.00000
   17 Bend                     2     1     4               114.39985   -0.00222
   18 Bend                     2     1     5               114.39985   -0.00222
   19 Bend                     2     3     8               114.39985   -0.00222
   20 Bend                     2     3     9               114.39985   -0.00222
   21 Bend                     3     1     4               114.39985   -0.00222
   22 Bend                     3     1     5               114.39985   -0.00222
   23 Bend                     3     2     6               114.39985   -0.00222
   24 Bend                     3     2     7               114.39985   -0.00222
   25 Bend                     4     1     5               123.01951    0.00530
   26 Bend                     6     2     7               123.01951    0.00530
   27 Bend                     8     3     9               123.01951    0.00530
   28 Torsion                  1     2     3     8         105.18259   -0.00160
   29 Torsion                  1     2     3     9        -105.18259    0.00160
   30 Torsion                  1     3     2     6         105.18259   -0.00160
   31 Torsion                  1     3     2     7        -105.18259    0.00160
   32 Torsion                  2     1     3     8        -105.18259    0.00160
   33 Torsion                  2     1     3     9         105.18259   -0.00160
   34 Torsion                  2     3     1     4         105.18259   -0.00160
   35 Torsion                  2     3     1     5        -105.18259    0.00160
   36 Torsion                  3     1     2     6        -105.18259    0.00160
   37 Torsion                  3     1     2     7         105.18259   -0.00160
   38 Torsion                  3     2     1     4        -105.18259    0.00160
   39 Torsion                  3     2     1     5         105.18259   -0.00160
   40 Torsion                  4     1     2     6         149.63483    0.00320
   41 Torsion                  4     1     2     7           0.00000    0.00000
   42 Torsion                  4     1     3     8           0.00000   -0.00000
   43 Torsion                  4     1     3     9        -149.63483   -0.00320
   44 Torsion                  5     1     2     6          -0.00000   -0.00000
   45 Torsion                  5     1     2     7        -149.63483   -0.00320
   46 Torsion                  5     1     3     8         149.63483    0.00320
   47 Torsion                  5     1     3     9           0.00000   -0.00000
   48 Torsion                  6     2     3     8        -149.63483   -0.00320
   49 Torsion                  6     2     3     9           0.00000    0.00000
   50 Torsion                  7     2     3     8          -0.00000    0.00000
   51 Torsion                  7     2     3     9         149.63483    0.00320

 Restricting large step in mode   11 eval= 4.4D-02 step=-3.5D-01 new=-3.0D-01
  no constraints, skipping    0.0000000000000000     
  no constraints, skipping    0.0000000000000000     
  no constraints, skipping    0.0000000000000000     
  no constraints, skipping    0.0000000000000000     
  no constraints, skipping    0.0000000000000000     
  no constraints, skipping    0.0000000000000000     
  no constraints, skipping    0.0000000000000000     
  no constraints, skipping    0.0000000000000000     

                                 NWChem DFT Module
                                 -----------------


                               Molecule conformer 0




 Summary of "ao basis" -> "ao basis" (spherical)
 ------------------------------------------------------------------------------
       Tag                 Description            Shells   Functions and Types
 ---------------- ------------------------------  ------  ---------------------
 C                           6-311G                  7       13   4s3p
 H                           6-311G                  3        3   3s


      Symmetry analysis of basis
      --------------------------

        a1'        10
        a1"         0
        a2'         3
        a2"         6
        e'         26
        e"         12

  Caching 1-el integrals 
  Rotation of axis 

            General Information
            -------------------
          SCF calculation type: DFT
          Wavefunction type:  closed shell.
          No. of atoms     :     9
          No. of electrons :    24
           Alpha electrons :    12
            Beta electrons :    12
          Charge           :     0
          Spin multiplicity:     1
          Use of symmetry is: on ; symmetry adaption is: on 
          Maximum number of iterations: ***
          This is a Direct SCF calculation.
          AO basis - number of functions:    57
                     number of shells:    39
          Convergence on energy requested:  1.00D-06
          Convergence on density requested:  1.00D-05
          Convergence on gradient requested:  5.00D-04

              XC Information
              --------------
                         B3LYP Method XC Potential
                     Hartree-Fock (Exact) Exchange  0.200          
                        Slater Exchange Functional  0.800 local    
                    Becke 1988 Exchange Functional  0.720 non-local
              Lee-Yang-Parr Correlation Functional  0.810          
                  VWN I RPA Correlation Functional  0.190 local    

             Grid Information
             ----------------
          Grid used for XC integration:  fine      
          Radial quadrature: Mura-Knowles        
          Angular quadrature: Lebedev. 
          Tag              B.-S. Rad. Rad. Pts. Rad. Cut. Ang. Pts.
          ---              ---------- --------- --------- ---------
          C                   0.70       70           8.0       590
          H                   0.35       60          10.0       590
          Grid pruning is: on 
          Number of quadrature shells:   130
          Spatial weights used:  Erf1

          Convergence Information
          -----------------------
          Convergence aids based upon iterative change in 
          total energy or number of iterations. 
          Levelshifting, if invoked, occurs when the 
          HOMO/LUMO gap drops below (HL_TOL):  1.00D-02
          DIIS, if invoked, will attempt to extrapolate 
          using up to (NFOCK): 10 stored Fock matrices.

                    Damping( 0%)  Levelshifting(0.5)       DIIS
                  --------------- ------------------- ---------------
          dE  on:    start            ASAP                start   
          dE off:    2 iters        *** iters           *** iters 


      Screening Tolerance Information
      -------------------------------
          Density screening/tol_rho:  1.00D-10
          AO Gaussian exp screening on grid/accAOfunc:  14
          CD Gaussian exp screening on grid/accCDfunc:  20
          XC Gaussian exp screening on grid/accXCfunc:  20
          Schwarz screening/accCoul:  1.00D-08

          Performing ZORA calculations
          ----------------------------


      Superposition of Atomic Density Guess
      -------------------------------------

 Sum of atomic energies:        -116.00451404

 Read atomic ZORA corrections from ./C1CC1_mol_0_conformer_0.zora_sf

 Forcing recalculation of ZORA corrections
       Generating atomic ZORA corrections
       ----------------------------------

 In dft_scf:: zora:Knucl= F

 Grid_pts file          = ./C1CC1_mol_0_conformer_0.gridpts.00
 Record size in doubles =  12289        No. of grid_pts per rec  =   3070
 Max. records in memory =      2        Max. recs in file   =     13628

 Grid integrated density:      23.999997144447
 Requested integration accuracy:   0.10E-06

 Wrote atomic ZORA corrections to ./C1CC1_mol_0_conformer_0.zora_sf


 Loading old vectors from job with title :

Molecule conformer 0


      Symmetry analysis of molecular orbitals - initial
      -------------------------------------------------

  Numbering of irreducible representations: 

     1 a1'         2 a1"         3 a2'         4 a2"         5 e'      
     6 e"      

  Orbital symmetries:

     1 a1'         2 e'          3 e'          4 a1'         5 e'      
     6 e'          7 a2"         8 a1'         9 e"         10 e"      
    11 e'         12 e'         13 a1'        14 a2"        15 e'      
    16 e'         17 a2'        18 e"         19 e"         20 e'      
    21 e'         22 a1'     

   Time after variat. SCF:     16.2
   Time prior to 1st pass:     16.2

           Memory utilization after 1st SCF pass: 
           Heap Space remaining (MW):      131.04           131041580
          Stack Space remaining (MW):      131.06           131064908

   convergence    iter        energy       DeltaE   RMS-Dens  Diis-err    time
 ---------------- ----- ----------------- --------- --------- ---------  ------
 d= 0,ls=0.0,diis     1   -117.9542534145 -1.93D+02  2.09D-03  9.50D-03    17.0
 d= 0,ls=0.0,diis     2   -117.9552593211 -1.01D-03  6.67D-04  1.73D-03    18.2
 d= 0,ls=0.0,diis     3   -117.9553890324 -1.30D-04  3.18D-04  7.57D-04    19.3
 d= 0,ls=0.0,diis     4   -117.9554875546 -9.85D-05  3.53D-05  1.30D-06    20.4
 d= 0,ls=0.0,diis     5   -117.9554877408 -1.86D-07  2.24D-06  1.21D-08    21.0
(nogshift,skip_gshiftAOev,done_Fji)=( 1,F,F)


         Total DFT energy =     -117.955487740806
      One electron energy =     -306.233885324055
           Coulomb energy =      131.376232488967
    Exchange-Corr. energy =      -18.541932208204
 Nuclear repulsion energy =       75.444097302487

       Scaling correction =        0.026245566534

 Numeric. integr. density =       23.999999135897

     Total iterative time =      4.9s



                  Occupations of the irreducible representations
                  ----------------------------------------------

                     irrep           alpha         beta
                     --------     --------     --------
                     a1'               3.0          3.0
                     a1"               0.0          0.0
                     a2'               0.0          0.0
                     a2"               1.0          1.0
                     e'                6.0          6.0
                     e"                2.0          2.0


 center of mass
 --------------
 x =   0.00000000 y =  -0.00000000 z =   0.00000000

 moments of inertia (a.u.)
 ------------------
          90.558880654313          -0.000000000000           0.000000000000
          -0.000000000000          90.558880654313           0.000000000000
           0.000000000000           0.000000000000         143.457369293588
 Line search: 
     step= 1.00 grad=-1.2D-02 hess= 4.5D-03 energy=   -117.955488 mode=downhill
 new step= 1.33                   predicted energy=   -117.955991
  no constraints, skipping    0.0000000000000000     
  no constraints, skipping    0.0000000000000000     
  no constraints, skipping    0.0000000000000000     
  no constraints, skipping    0.0000000000000000     
  no constraints, skipping    0.0000000000000000     
  no constraints, skipping    0.0000000000000000     
  no constraints, skipping    0.0000000000000000     
  no constraints, skipping    0.0000000000000000     

          --------
          Step   1
          --------


                         Geometry "geometry" -> "geometry"
                         ---------------------------------

 Output coordinates in angstroms (scale by  1.889725989 to convert to a.u.)

  No.       Tag          Charge          X              Y              Z
 ---- ---------------- ---------- -------------- -------------- --------------
    1 C                    6.0000     0.22852239    -0.85285715     0.00000000
    2 C                    6.0000     0.62433477     0.62433477     0.00000000
    3 C                    6.0000    -0.85285715     0.22852239     0.00000000
    4 H                    1.0000     0.36917223    -1.37776951     0.91980320
    5 H                    1.0000     0.36917223    -1.37776951    -0.91980320
    6 H                    1.0000     1.00859728     1.00859728    -0.91980320
    7 H                    1.0000     1.00859728     1.00859728     0.91980320
    8 H                    1.0000    -1.37776951     0.36917223     0.91980320
    9 H                    1.0000    -1.37776951     0.36917223    -0.91980320

      Atomic Mass 
      ----------- 

      C                 12.000000
      H                  1.007825


 Effective nuclear repulsion energy (a.u.)      75.5593173456

            Nuclear Dipole moment (a.u.) 
            ----------------------------
        X                 Y               Z
 ---------------- ---------------- ----------------
     0.0000000000     0.0000000000     0.0000000000

      Symmetry information
      --------------------

 Group name             D3h       
 Group number             27
 Group order              12
 No. of unique centers     2

      Symmetry unique atoms

     1    4


                                 NWChem DFT Module
                                 -----------------


                               Molecule conformer 0




 Summary of "ao basis" -> "ao basis" (spherical)
 ------------------------------------------------------------------------------
       Tag                 Description            Shells   Functions and Types
 ---------------- ------------------------------  ------  ---------------------
 C                           6-311G                  7       13   4s3p
 H                           6-311G                  3        3   3s


      Symmetry analysis of basis
      --------------------------

        a1'        10
        a1"         0
        a2'         3
        a2"         6
        e'         26
        e"         12

  Caching 1-el integrals 
  Rotation of axis 

            General Information
            -------------------
          SCF calculation type: DFT
          Wavefunction type:  closed shell.
          No. of atoms     :     9
          No. of electrons :    24
           Alpha electrons :    12
            Beta electrons :    12
          Charge           :     0
          Spin multiplicity:     1
          Use of symmetry is: on ; symmetry adaption is: on 
          Maximum number of iterations: ***
          This is a Direct SCF calculation.
          AO basis - number of functions:    57
                     number of shells:    39
          Convergence on energy requested:  1.00D-06
          Convergence on density requested:  1.00D-05
          Convergence on gradient requested:  5.00D-04

              XC Information
              --------------
                         B3LYP Method XC Potential
                     Hartree-Fock (Exact) Exchange  0.200          
                        Slater Exchange Functional  0.800 local    
                    Becke 1988 Exchange Functional  0.720 non-local
              Lee-Yang-Parr Correlation Functional  0.810          
                  VWN I RPA Correlation Functional  0.190 local    

             Grid Information
             ----------------
          Grid used for XC integration:  fine      
          Radial quadrature: Mura-Knowles        
          Angular quadrature: Lebedev. 
          Tag              B.-S. Rad. Rad. Pts. Rad. Cut. Ang. Pts.
          ---              ---------- --------- --------- ---------
          C                   0.70       70           8.0       590
          H                   0.35       60          10.0       590
          Grid pruning is: on 
          Number of quadrature shells:   130
          Spatial weights used:  Erf1

          Convergence Information
          -----------------------
          Convergence aids based upon iterative change in 
          total energy or number of iterations. 
          Levelshifting, if invoked, occurs when the 
          HOMO/LUMO gap drops below (HL_TOL):  1.00D-02
          DIIS, if invoked, will attempt to extrapolate 
          using up to (NFOCK): 10 stored Fock matrices.

                    Damping( 0%)  Levelshifting(0.5)       DIIS
                  --------------- ------------------- ---------------
          dE  on:    start            ASAP                start   
          dE off:    2 iters        *** iters           *** iters 


      Screening Tolerance Information
      -------------------------------
          Density screening/tol_rho:  1.00D-10
          AO Gaussian exp screening on grid/accAOfunc:  14
          CD Gaussian exp screening on grid/accCDfunc:  20
          XC Gaussian exp screening on grid/accXCfunc:  20
          Schwarz screening/accCoul:  1.00D-08

          Performing ZORA calculations
          ----------------------------


      Superposition of Atomic Density Guess
      -------------------------------------

 Sum of atomic energies:        -116.00451404

 Read atomic ZORA corrections from ./C1CC1_mol_0_conformer_0.zora_sf

 Forcing recalculation of ZORA corrections
       Generating atomic ZORA corrections
       ----------------------------------

 In dft_scf:: zora:Knucl= F

 Grid_pts file          = ./C1CC1_mol_0_conformer_0.gridpts.00
 Record size in doubles =  12289        No. of grid_pts per rec  =   3070
 Max. records in memory =      2        Max. recs in file   =     13628

 Grid integrated density:      23.999997008955
 Requested integration accuracy:   0.10E-06

 Wrote atomic ZORA corrections to ./C1CC1_mol_0_conformer_0.zora_sf


 Loading old vectors from job with title :

Molecule conformer 0


      Symmetry analysis of molecular orbitals - initial
      -------------------------------------------------

  Numbering of irreducible representations: 

     1 a1'         2 a1"         3 a2'         4 a2"         5 e'      
     6 e"      

  Orbital symmetries:

     1 a1'         2 e'          3 e'          4 a1'         5 e'      
     6 e'          7 a2"         8 a1'         9 e"         10 e"      
    11 e'         12 e'         13 a1'        14 a2"        15 e'      
    16 e'         17 a2'        18 e"         19 e"         20 e'      
    21 e'         22 a1'     

   Time after variat. SCF:     27.0
   Time prior to 1st pass:     27.0

           Memory utilization after 1st SCF pass: 
           Heap Space remaining (MW):      131.04           131041580
          Stack Space remaining (MW):      131.06           131064908

   convergence    iter        energy       DeltaE   RMS-Dens  Diis-err    time
 ---------------- ----- ----------------- --------- --------- ---------  ------
 d= 0,ls=0.0,diis     1   -117.9557025434 -1.94D+02  6.79D-04  1.11D-03    28.3
 d= 0,ls=0.0,diis     2   -117.9558186125 -1.16D-04  2.21D-04  1.92D-04    29.5
 d= 0,ls=0.0,diis     3   -117.9558329168 -1.43D-05  1.06D-04  8.42D-05    30.7
 d= 0,ls=0.0,diis     4   -117.9558438395 -1.09D-05  1.19D-05  1.59D-07    32.2
 d= 0,ls=0.0,diis     5   -117.9558438622 -2.27D-08  7.62D-07  1.35D-09    33.6
(nogshift,skip_gshiftAOev,done_Fji)=( 1,F,F)


         Total DFT energy =     -117.955843862205
      One electron energy =     -306.445066733941
           Coulomb energy =      131.491787920982
    Exchange-Corr. energy =      -18.561882394847
 Nuclear repulsion energy =       75.559317345601

       Scaling correction =        0.026237861394

 Numeric. integr. density =       23.999999302301

     Total iterative time =      6.7s



                  Occupations of the irreducible representations
                  ----------------------------------------------

                     irrep           alpha         beta
                     --------     --------     --------
                     a1'               3.0          3.0
                     a1"               0.0          0.0
                     a2'               0.0          0.0
                     a2"               1.0          1.0
                     e'                6.0          6.0
                     e"                2.0          2.0


 center of mass
 --------------
 x =   0.00000000 y =   0.00000000 z =   0.00000000

 moments of inertia (a.u.)
 ------------------
          90.347573722502          -0.000000000000           0.000000000000
          -0.000000000000          90.347573722502           0.000000000000
           0.000000000000           0.000000000000         144.156381395527

            General Information
            -------------------
          SCF calculation type: DFT
          Wavefunction type:  closed shell.
          No. of atoms     :     9
          No. of electrons :    24
           Alpha electrons :    12
            Beta electrons :    12
          Charge           :     0
          Spin multiplicity:     1
          Use of symmetry is: on ; symmetry adaption is: on 
          Maximum number of iterations: ***
          This is a Direct SCF calculation.
          AO basis - number of functions:    57
                     number of shells:    39
          Convergence on energy requested:  1.00D-06
          Convergence on density requested:  1.00D-05
          Convergence on gradient requested:  5.00D-04

              XC Information
              --------------
                         B3LYP Method XC Potential
                     Hartree-Fock (Exact) Exchange  0.200          
                        Slater Exchange Functional  0.800 local    
                    Becke 1988 Exchange Functional  0.720 non-local
              Lee-Yang-Parr Correlation Functional  0.810          
                  VWN I RPA Correlation Functional  0.190 local    

             Grid Information
             ----------------
          Grid used for XC integration:  fine      
          Radial quadrature: Mura-Knowles        
          Angular quadrature: Lebedev. 
          Tag              B.-S. Rad. Rad. Pts. Rad. Cut. Ang. Pts.
          ---              ---------- --------- --------- ---------
          C                   0.70       70           8.0       590
          H                   0.35       60          10.0       590
          Grid pruning is: on 
          Number of quadrature shells:   130
          Spatial weights used:  Erf1

          Convergence Information
          -----------------------
          Convergence aids based upon iterative change in 
          total energy or number of iterations. 
          Levelshifting, if invoked, occurs when the 
          HOMO/LUMO gap drops below (HL_TOL):  1.00D-02
          DIIS, if invoked, will attempt to extrapolate 
          using up to (NFOCK): 10 stored Fock matrices.

                    Damping( 0%)  Levelshifting(0.5)       DIIS
                  --------------- ------------------- ---------------
          dE  on:    start            ASAP                start   
          dE off:    2 iters        *** iters           *** iters 


      Screening Tolerance Information
      -------------------------------
          Density screening/tol_rho:  1.00D-10
          AO Gaussian exp screening on grid/accAOfunc:  14
          CD Gaussian exp screening on grid/accCDfunc:  20
          XC Gaussian exp screening on grid/accXCfunc:  20
          Schwarz screening/accCoul:  1.00D-08



                            NWChem DFT Gradient Module
                            --------------------------


                               Molecule conformer 0



  charge          =   0.00
  wavefunction    = closed shell

  Rotation of axis 
  Using symmetry


                         DFT ENERGY GRADIENTS

    atom               coordinates                        gradient
                 x          y          z           x          y          z
   1 C       0.431845  -1.611666   0.000000    0.005937  -0.022157   0.000000
   2 C       1.179822   1.179822   0.000000    0.016220   0.016220   0.000000
   3 C      -1.611666   0.431845   0.000000   -0.022157   0.005937   0.000000
   4 H       0.697634  -2.603607   1.738176   -0.002461   0.009183  -0.003184
   5 H       0.697634  -2.603607  -1.738176   -0.002461   0.009183   0.003184
   6 H       1.905972   1.905972  -1.738176   -0.006722  -0.006722   0.003184
   7 H       1.905972   1.905972   1.738176   -0.006722  -0.006722  -0.003184
   8 H      -2.603607   0.697634   1.738176    0.009183  -0.002461  -0.003184
   9 H      -2.603607   0.697634  -1.738176    0.009183  -0.002461   0.003184

                 ----------------------------------------
                 |  Time  |  1-e(secs)   |  2-e(secs)   |
                 ----------------------------------------
                 |  CPU   |       0.00   |       0.01   |
                 ----------------------------------------
                 |  WALL  |       0.00   |       0.01   |
                 ----------------------------------------
  no constraints, skipping    0.0000000000000000     

  Step       Energy      Delta E   Gmax     Grms     Xrms     Xmax   Walltime
  ---- ---------------- -------- -------- -------- -------- -------- --------
@    1    -117.95584386 -7.9D-03  0.00758  0.00284  0.05329  0.10624     34.8
                                                                    



                                Z-matrix (autoz)
                                -------- 

 Units are Angstrom for bonds and degrees for angles

      Type          Name      I     J     K     L     M      Value     Gradient
      ----------- --------  ----- ----- ----- ----- ----- ---------- ----------
    1 Stretch                  1     2                       1.52930    0.00227
    2 Stretch                  1     3                       1.52930    0.00227
    3 Stretch                  1     4                       1.06834   -0.00758
    4 Stretch                  1     5                       1.06834   -0.00758
    5 Stretch                  2     3                       1.52930    0.00227
    6 Stretch                  2     6                       1.06834   -0.00758
    7 Stretch                  2     7                       1.06834   -0.00758
    8 Stretch                  3     8                       1.06834   -0.00758
    9 Stretch                  3     9                       1.06834   -0.00758
   10 Bend                     1     2     3                60.00000    0.00000
   11 Bend                     1     2     6               116.13693   -0.00102
   12 Bend                     1     2     7               116.13693   -0.00102
   13 Bend                     1     3     2                60.00000   -0.00000
   14 Bend                     1     3     8               116.13693   -0.00102
   15 Bend                     1     3     9               116.13693   -0.00102
   16 Bend                     2     1     3                60.00000   -0.00000
   17 Bend                     2     1     4               116.13693   -0.00102
   18 Bend                     2     1     5               116.13693   -0.00102
   19 Bend                     2     3     8               116.13693   -0.00102
   20 Bend                     2     3     9               116.13693   -0.00102
   21 Bend                     3     1     4               116.13693   -0.00102
   22 Bend                     3     1     5               116.13693   -0.00102
   23 Bend                     3     2     6               116.13693   -0.00102
   24 Bend                     3     2     7               116.13693   -0.00102
   25 Bend                     4     1     5               118.84993    0.00247
   26 Bend                     6     2     7               118.84993    0.00247
   27 Bend                     8     3     9               118.84993    0.00247
   28 Torsion                  1     2     3     8         106.45741   -0.00076
   29 Torsion                  1     2     3     9        -106.45741    0.00076
   30 Torsion                  1     3     2     6         106.45741   -0.00076
   31 Torsion                  1     3     2     7        -106.45741    0.00076
   32 Torsion                  2     1     3     8        -106.45741    0.00076
   33 Torsion                  2     1     3     9         106.45741   -0.00076
   34 Torsion                  2     3     1     4         106.45741   -0.00076
   35 Torsion                  2     3     1     5        -106.45741    0.00076
   36 Torsion                  3     1     2     6        -106.45741    0.00076
   37 Torsion                  3     1     2     7         106.45741   -0.00076
   38 Torsion                  3     2     1     4        -106.45741    0.00076
   39 Torsion                  3     2     1     5         106.45741   -0.00076
   40 Torsion                  4     1     2     6         147.08517    0.00153
   41 Torsion                  4     1     2     7           0.00000    0.00000
   42 Torsion                  4     1     3     8           0.00000   -0.00000
   43 Torsion                  4     1     3     9        -147.08517   -0.00153
   44 Torsion                  5     1     2     6          -0.00000   -0.00000
   45 Torsion                  5     1     2     7        -147.08517   -0.00153
   46 Torsion                  5     1     3     8         147.08517    0.00153
   47 Torsion                  5     1     3     9          -0.00000    0.00000
   48 Torsion                  6     2     3     8        -147.08517   -0.00153
   49 Torsion                  6     2     3     9           0.00000   -0.00000
   50 Torsion                  7     2     3     8          -0.00000   -0.00000
   51 Torsion                  7     2     3     9         147.08517    0.00153

  no constraints, skipping    0.0000000000000000     
  no constraints, skipping    0.0000000000000000     
  no constraints, skipping    0.0000000000000000     
  no constraints, skipping    0.0000000000000000     
  no constraints, skipping    0.0000000000000000     
  no constraints, skipping    0.0000000000000000     
  no constraints, skipping    0.0000000000000000     
  no constraints, skipping    0.0000000000000000     

                                 NWChem DFT Module
                                 -----------------


                               Molecule conformer 0




 Summary of "ao basis" -> "ao basis" (spherical)
 ------------------------------------------------------------------------------
       Tag                 Description            Shells   Functions and Types
 ---------------- ------------------------------  ------  ---------------------
 C                           6-311G                  7       13   4s3p
 H                           6-311G                  3        3   3s


      Symmetry analysis of basis
      --------------------------

        a1'        10
        a1"         0
        a2'         3
        a2"         6
        e'         26
        e"         12

  Caching 1-el integrals 
  Rotation of axis 

            General Information
            -------------------
          SCF calculation type: DFT
          Wavefunction type:  closed shell.
          No. of atoms     :     9
          No. of electrons :    24
           Alpha electrons :    12
            Beta electrons :    12
          Charge           :     0
          Spin multiplicity:     1
          Use of symmetry is: on ; symmetry adaption is: on 
          Maximum number of iterations: ***
          This is a Direct SCF calculation.
          AO basis - number of functions:    57
                     number of shells:    39
          Convergence on energy requested:  1.00D-06
          Convergence on density requested:  1.00D-05
          Convergence on gradient requested:  5.00D-04

              XC Information
              --------------
                         B3LYP Method XC Potential
                     Hartree-Fock (Exact) Exchange  0.200          
                        Slater Exchange Functional  0.800 local    
                    Becke 1988 Exchange Functional  0.720 non-local
              Lee-Yang-Parr Correlation Functional  0.810          
                  VWN I RPA Correlation Functional  0.190 local    

             Grid Information
             ----------------
          Grid used for XC integration:  fine      
          Radial quadrature: Mura-Knowles        
          Angular quadrature: Lebedev. 
          Tag              B.-S. Rad. Rad. Pts. Rad. Cut. Ang. Pts.
          ---              ---------- --------- --------- ---------
          C                   0.70       70           8.0       590
          H                   0.35       60          10.0       590
          Grid pruning is: on 
          Number of quadrature shells:   130
          Spatial weights used:  Erf1

          Convergence Information
          -----------------------
          Convergence aids based upon iterative change in 
          total energy or number of iterations. 
          Levelshifting, if invoked, occurs when the 
          HOMO/LUMO gap drops below (HL_TOL):  1.00D-02
          DIIS, if invoked, will attempt to extrapolate 
          using up to (NFOCK): 10 stored Fock matrices.

                    Damping( 0%)  Levelshifting(0.5)       DIIS
                  --------------- ------------------- ---------------
          dE  on:    start            ASAP                start   
          dE off:    2 iters        *** iters           *** iters 


      Screening Tolerance Information
      -------------------------------
          Density screening/tol_rho:  1.00D-10
          AO Gaussian exp screening on grid/accAOfunc:  14
          CD Gaussian exp screening on grid/accCDfunc:  20
          XC Gaussian exp screening on grid/accXCfunc:  20
          Schwarz screening/accCoul:  1.00D-08

          Performing ZORA calculations
          ----------------------------


      Superposition of Atomic Density Guess
      -------------------------------------

 Sum of atomic energies:        -116.00451404

 Read atomic ZORA corrections from ./C1CC1_mol_0_conformer_0.zora_sf

 Forcing recalculation of ZORA corrections
       Generating atomic ZORA corrections
       ----------------------------------

 In dft_scf:: zora:Knucl= F

 Grid_pts file          = ./C1CC1_mol_0_conformer_0.gridpts.00
 Record size in doubles =  12289        No. of grid_pts per rec  =   3070
 Max. records in memory =      2        Max. recs in file   =     13628


 Wrote atomic ZORA corrections to ./C1CC1_mol_0_conformer_0.zora_sf


 Loading old vectors from job with title :

Molecule conformer 0


      Symmetry analysis of molecular orbitals - initial
      -------------------------------------------------

  Numbering of irreducible representations: 

     1 a1'         2 a1"         3 a2'         4 a2"         5 e'      
     6 e"      

  Orbital symmetries:

     1 a1'         2 e'          3 e'          4 a1'         5 e'      
     6 e'          7 a2"         8 a1'         9 e"         10 e"      
    11 e'         12 e'         13 a1'        14 a2"        15 e'      
    16 e'         17 a2'        18 e"         19 e"         20 e'      
    21 e'         22 a1'     

   Time after variat. SCF:     40.2
   Time prior to 1st pass:     40.2

           Memory utilization after 1st SCF pass: 
           Heap Space remaining (MW):      131.04           131041580
          Stack Space remaining (MW):      131.06           131064908

   convergence    iter        energy       DeltaE   RMS-Dens  Diis-err    time
 ---------------- ----- ----------------- --------- --------- ---------  ------
 d= 0,ls=0.0,diis     1   -117.9572791840 -1.93D+02  6.68D-04  8.89D-04    41.4
 d= 0,ls=0.0,diis     2   -117.9573938702 -1.15D-04  2.45D-04  1.34D-04    42.6
 d= 0,ls=0.0,diis     3   -117.9574009745 -7.10D-06  9.66D-05  8.83D-05    44.2
 d= 0,ls=0.0,diis     4   -117.9574125554 -1.16D-05  2.19D-06  1.49D-08    45.4
 d= 0,ls=0.0,diis     5   -117.9574125582 -2.84D-09  2.67D-07  7.05D-11    46.9
(nogshift,skip_gshiftAOev,done_Fji)=( 1,F,F)


         Total DFT energy =     -117.957412558205
      One electron energy =     -306.045257361699
           Coulomb energy =      131.282009394094
    Exchange-Corr. energy =      -18.545432903025
 Nuclear repulsion energy =       75.351268312425

       Scaling correction =        0.026240392075

 Numeric. integr. density =       23.999999661073

     Total iterative time =      6.8s



                  Occupations of the irreducible representations
                  ----------------------------------------------

                     irrep           alpha         beta
                     --------     --------     --------
                     a1'               3.0          3.0
                     a1"               0.0          0.0
                     a2'               0.0          0.0
                     a2"               1.0          1.0
                     e'                6.0          6.0
                     e"                2.0          2.0


 center of mass
 --------------
 x =  -0.00000000 y =  -0.00000000 z =   0.00000000

 moments of inertia (a.u.)
 ------------------
          90.684122007941           0.000000000000           0.000000000000
           0.000000000000          90.684122007941           0.000000000000
           0.000000000000           0.000000000000         145.078114675039
 Line search: 
     step= 1.00 grad=-2.1D-03 hess= 5.1D-04 energy=   -117.957413 mode=downhill
 new step= 2.04                   predicted energy=   -117.957961
  no constraints, skipping    0.0000000000000000     
  no constraints, skipping    0.0000000000000000     
  no constraints, skipping    0.0000000000000000     
  no constraints, skipping    0.0000000000000000     
  no constraints, skipping    0.0000000000000000     
  no constraints, skipping    0.0000000000000000     
  no constraints, skipping    0.0000000000000000     
  no constraints, skipping    0.0000000000000000     

          --------
          Step   2
          --------


                         Geometry "geometry" -> "geometry"
                         ---------------------------------

 Output coordinates in angstroms (scale by  1.889725989 to convert to a.u.)

  No.       Tag          Charge          X              Y              Z
 ---- ---------------- ---------- -------------- -------------- --------------
    1 C                    6.0000     0.22793717    -0.85067311     0.00000000
    2 C                    6.0000     0.62273593     0.62273593     0.00000000
    3 C                    6.0000    -0.85067311     0.22793717     0.00000000
    4 H                    1.0000     0.37913741    -1.41496007     0.91303429
    5 H                    1.0000     0.37913741    -1.41496007    -0.91303429
    6 H                    1.0000     1.03582266     1.03582266    -0.91303429
    7 H                    1.0000     1.03582266     1.03582266     0.91303429
    8 H                    1.0000    -1.41496007     0.37913741     0.91303429
    9 H                    1.0000    -1.41496007     0.37913741    -0.91303429

      Atomic Mass 
      ----------- 

      C                 12.000000
      H                  1.007825


 Effective nuclear repulsion energy (a.u.)      75.1410760329

            Nuclear Dipole moment (a.u.) 
            ----------------------------
        X                 Y               Z
 ---------------- ---------------- ----------------
    -0.0000000000    -0.0000000000     0.0000000000

      Symmetry information
      --------------------

 Group name             D3h       
 Group number             27
 Group order              12
 No. of unique centers     2

      Symmetry unique atoms

     1    4


                                 NWChem DFT Module
                                 -----------------


                               Molecule conformer 0




 Summary of "ao basis" -> "ao basis" (spherical)
 ------------------------------------------------------------------------------
       Tag                 Description            Shells   Functions and Types
 ---------------- ------------------------------  ------  ---------------------
 C                           6-311G                  7       13   4s3p
 H                           6-311G                  3        3   3s


      Symmetry analysis of basis
      --------------------------

        a1'        10
        a1"         0
        a2'         3
        a2"         6
        e'         26
        e"         12

  Caching 1-el integrals 
  Rotation of axis 

            General Information
            -------------------
          SCF calculation type: DFT
          Wavefunction type:  closed shell.
          No. of atoms     :     9
          No. of electrons :    24
           Alpha electrons :    12
            Beta electrons :    12
          Charge           :     0
          Spin multiplicity:     1
          Use of symmetry is: on ; symmetry adaption is: on 
          Maximum number of iterations: ***
          This is a Direct SCF calculation.
          AO basis - number of functions:    57
                     number of shells:    39
          Convergence on energy requested:  1.00D-06
          Convergence on density requested:  1.00D-05
          Convergence on gradient requested:  5.00D-04

              XC Information
              --------------
                         B3LYP Method XC Potential
                     Hartree-Fock (Exact) Exchange  0.200          
                        Slater Exchange Functional  0.800 local    
                    Becke 1988 Exchange Functional  0.720 non-local
              Lee-Yang-Parr Correlation Functional  0.810          
                  VWN I RPA Correlation Functional  0.190 local    

             Grid Information
             ----------------
          Grid used for XC integration:  fine      
          Radial quadrature: Mura-Knowles        
          Angular quadrature: Lebedev. 
          Tag              B.-S. Rad. Rad. Pts. Rad. Cut. Ang. Pts.
          ---              ---------- --------- --------- ---------
          C                   0.70       70           8.0       590
          H                   0.35       60          10.0       590
          Grid pruning is: on 
          Number of quadrature shells:   130
          Spatial weights used:  Erf1

          Convergence Information
          -----------------------
          Convergence aids based upon iterative change in 
          total energy or number of iterations. 
          Levelshifting, if invoked, occurs when the 
          HOMO/LUMO gap drops below (HL_TOL):  1.00D-02
          DIIS, if invoked, will attempt to extrapolate 
          using up to (NFOCK): 10 stored Fock matrices.

                    Damping( 0%)  Levelshifting(0.5)       DIIS
                  --------------- ------------------- ---------------
          dE  on:    start            ASAP                start   
          dE off:    2 iters        *** iters           *** iters 


      Screening Tolerance Information
      -------------------------------
          Density screening/tol_rho:  1.00D-10
          AO Gaussian exp screening on grid/accAOfunc:  14
          CD Gaussian exp screening on grid/accCDfunc:  20
          XC Gaussian exp screening on grid/accXCfunc:  20
          Schwarz screening/accCoul:  1.00D-08

          Performing ZORA calculations
          ----------------------------


      Superposition of Atomic Density Guess
      -------------------------------------

 Sum of atomic energies:        -116.00451404

 Read atomic ZORA corrections from ./C1CC1_mol_0_conformer_0.zora_sf

 Forcing recalculation of ZORA corrections
       Generating atomic ZORA corrections
       ----------------------------------

 In dft_scf:: zora:Knucl= F

 Grid_pts file          = ./C1CC1_mol_0_conformer_0.gridpts.00
 Record size in doubles =  12289        No. of grid_pts per rec  =   3070
 Max. records in memory =      2        Max. recs in file   =     13628

 Grid integrated density:      23.999997428186
 Requested integration accuracy:   0.10E-06

 Wrote atomic ZORA corrections to ./C1CC1_mol_0_conformer_0.zora_sf


 Loading old vectors from job with title :

Molecule conformer 0


      Symmetry analysis of molecular orbitals - initial
      -------------------------------------------------

  Numbering of irreducible representations: 

     1 a1'         2 a1"         3 a2'         4 a2"         5 e'      
     6 e"      

  Orbital symmetries:

     1 a1'         2 e'          3 e'          4 a1'         5 e'      
     6 e'          7 a2"         8 a1'         9 e"         10 e"      
    11 e'         12 e'         13 a1'        14 a2"        15 e'      
    16 e'         17 a2'        18 e"         19 e"         20 e'      
    21 e'         22 a1'     

   Time after variat. SCF:     53.1
   Time prior to 1st pass:     53.1

           Memory utilization after 1st SCF pass: 
           Heap Space remaining (MW):      131.04           131041580
          Stack Space remaining (MW):      131.06           131064908

   convergence    iter        energy       DeltaE   RMS-Dens  Diis-err    time
 ---------------- ----- ----------------- --------- --------- ---------  ------
 d= 0,ls=0.0,diis     1   -117.9578531455 -1.93D+02  6.64D-04  9.34D-04    54.2
 d= 0,ls=0.0,diis     2   -117.9579731503 -1.20D-04  2.51D-04  1.47D-04    55.3
 d= 0,ls=0.0,diis     3   -117.9579808131 -7.66D-06  1.00D-04  9.68D-05    56.3
 d= 0,ls=0.0,diis     4   -117.9579935440 -1.27D-05  2.64D-06  1.56D-08    57.6
 d= 0,ls=0.0,diis     5   -117.9579935470 -2.97D-09  1.87D-07  7.15D-11    58.8
(nogshift,skip_gshiftAOev,done_Fji)=( 1,F,F)


         Total DFT energy =     -117.957993546959
      One electron energy =     -305.638655900788
           Coulomb energy =      131.068122148649
    Exchange-Corr. energy =      -18.528535827769
 Nuclear repulsion energy =       75.141076032949

       Scaling correction =        0.026246448579

 Numeric. integr. density =       23.999999680808

     Total iterative time =      5.7s



                  Occupations of the irreducible representations
                  ----------------------------------------------

                     irrep           alpha         beta
                     --------     --------     --------
                     a1'               3.0          3.0
                     a1"               0.0          0.0
                     a2'               0.0          0.0
                     a2"               1.0          1.0
                     e'                6.0          6.0
                     e"                2.0          2.0


 center of mass
 --------------
 x =  -0.00000000 y =  -0.00000000 z =   0.00000000

[...]
(dia2,par1)(k,t,iat1,spin)=(  1,  3,  7,  1)=(    -3.38356909,    -3.38356909,     0.32948322,     0.32948322) ppm
(dia2,par1)(k,t,iat1,spin)=(  2,  3,  7,  1)=(    -3.38202435,    -3.38202435,     0.32931853,     0.32931853) ppm
(dia2,par1)(k,t,iat1,spin)=(  3,  3,  7,  1)=(     1.25662950,     1.25662950,    -1.57455750,    -1.57455750) ppm
 Grid integrated density:      24.000013627194
 Requested integration accuracy:   0.10E-06
dia1(k,t,iat1,ispin)=(  1,  1,  8,  1)=(    27.75385736,    27.75385736) ppm
dia1(k,t,iat1,ispin)=(  1,  2,  8,  1)=(    -2.46380120,    -2.46380120) ppm
dia1(k,t,iat1,ispin)=(  1,  3,  8,  1)=(   -11.17236851,   -11.17236851) ppm
dia1(k,t,iat1,ispin)=(  2,  1,  8,  1)=(    -2.44938858,    -2.44938858) ppm
dia1(k,t,iat1,ispin)=(  2,  2,  8,  1)=(    19.21332208,    19.21332208) ppm
dia1(k,t,iat1,ispin)=(  2,  3,  8,  1)=(     2.98759294,     2.98759294) ppm
dia1(k,t,iat1,ispin)=(  3,  1,  8,  1)=(   -10.79586735,   -10.79586735) ppm
dia1(k,t,iat1,ispin)=(  3,  2,  8,  1)=(     2.89795111,     2.89795111) ppm
dia1(k,t,iat1,ispin)=(  3,  3,  8,  1)=(    32.11038212,    32.11038212) ppm
(dia2,par1)(k,t,iat1,spin)=(  1,  1,  8,  1)=(     3.76034211,     3.76034211,    -0.14379066,    -0.14379066) ppm
(dia2,par1)(k,t,iat1,spin)=(  2,  1,  8,  1)=(     0.57404947,     0.57404947,     0.12747916,     0.12747916) ppm
(dia2,par1)(k,t,iat1,spin)=(  3,  1,  8,  1)=(     3.25265421,     3.25265421,    -1.21376895,    -1.21376895) ppm
(dia2,par1)(k,t,iat1,spin)=(  1,  2,  8,  1)=(     0.57528588,     0.57528588,     0.11652599,     0.11652599) ppm
(dia2,par1)(k,t,iat1,spin)=(  2,  2,  8,  1)=(     5.74598137,     5.74598137,     0.29748875,     0.29748875) ppm
(dia2,par1)(k,t,iat1,spin)=(  3,  2,  8,  1)=(    -0.87039834,    -0.87039834,     0.33609992,     0.33609992) ppm
(dia2,par1)(k,t,iat1,spin)=(  1,  3,  8,  1)=(     4.63139672,     4.63139672,    -0.45004281,    -0.45004281) ppm
(dia2,par1)(k,t,iat1,spin)=(  2,  3,  8,  1)=(    -1.24931848,    -1.24931848,     0.12044638,     0.12044638) ppm
(dia2,par1)(k,t,iat1,spin)=(  3,  3,  8,  1)=(     1.25090571,     1.25090571,    -1.57308590,    -1.57308590) ppm
 Grid integrated density:      24.000013627194
 Requested integration accuracy:   0.10E-06
dia1(k,t,iat1,ispin)=(  1,  1,  9,  1)=(    27.75696505,    27.75696505) ppm
dia1(k,t,iat1,ispin)=(  1,  2,  9,  1)=(    -2.46374881,    -2.46374881) ppm
dia1(k,t,iat1,ispin)=(  1,  3,  9,  1)=(    11.17244319,    11.17244319) ppm
dia1(k,t,iat1,ispin)=(  2,  1,  9,  1)=(    -2.44935196,    -2.44935196) ppm
dia1(k,t,iat1,ispin)=(  2,  2,  9,  1)=(    19.21643601,    19.21643601) ppm
dia1(k,t,iat1,ispin)=(  2,  3,  9,  1)=(    -2.98767682,    -2.98767682) ppm
dia1(k,t,iat1,ispin)=(  3,  1,  9,  1)=(    10.79587755,    10.79587755) ppm
dia1(k,t,iat1,ispin)=(  3,  2,  9,  1)=(    -2.89793516,    -2.89793516) ppm
dia1(k,t,iat1,ispin)=(  3,  3,  9,  1)=(    32.11368878,    32.11368878) ppm
(dia2,par1)(k,t,iat1,spin)=(  1,  1,  9,  1)=(     3.76026117,     3.76026117,    -0.14379586,    -0.14379586) ppm
(dia2,par1)(k,t,iat1,spin)=(  2,  1,  9,  1)=(     0.57396635,     0.57396635,     0.12746153,     0.12746153) ppm
(dia2,par1)(k,t,iat1,spin)=(  3,  1,  9,  1)=(    -3.25274981,    -3.25274981,     1.21376352,     1.21376352) ppm
(dia2,par1)(k,t,iat1,spin)=(  1,  2,  9,  1)=(     0.57527003,     0.57527003,     0.11639525,     0.11639525) ppm
(dia2,par1)(k,t,iat1,spin)=(  2,  2,  9,  1)=(     5.74611865,     5.74611865,     0.29728422,     0.29728422) ppm
(dia2,par1)(k,t,iat1,spin)=(  3,  2,  9,  1)=(     0.87040182,     0.87040182,    -0.33619149,    -0.33619149) ppm
(dia2,par1)(k,t,iat1,spin)=(  1,  3,  9,  1)=(    -4.63170192,    -4.63170192,     0.45004968,     0.45004968) ppm
(dia2,par1)(k,t,iat1,spin)=(  2,  3,  9,  1)=(     1.24927263,     1.24927263,    -0.12045179,    -0.12045179) ppm
(dia2,par1)(k,t,iat1,spin)=(  3,  3,  9,  1)=(     1.25092716,     1.25092716,    -1.57313929,    -1.57313929) ppm
 Grid integrated density:      24.000013627194
 Requested integration accuracy:   0.10E-06

 Wrote ZORA NMR data to ./C1CC1_mol_0_conformer_0.zora_nmrcs

(nogshift,skip_gshiftAOev,done_Fji)=( 1,F,T)


         Total DFT energy =     -117.960040551267
      One electron energy =     -306.305500347188
           Coulomb energy =      131.399662107657
    Exchange-Corr. energy =      -18.544526836822
 Nuclear repulsion energy =       75.453833464992

             COSMO energy =        0.036491060094

       Scaling correction =        0.026374805349

 Numeric. integr. density =       24.000005163062

     Total iterative time =     27.7s


                                   COSMO solvation results
                                   -----------------------

                 gas phase energy =      -117.958420409882
                 sol phase energy =      -117.960040551267
 (electrostatic) solvation energy =         0.001620141386 (    1.02 kcal/mol)

 center of mass
 --------------
 x =   0.00000000 y =  -0.00000000 z =   0.00000000

 moments of inertia (a.u.)
 ------------------
          90.210865541724           0.000000000000           0.000000000000
           0.000000000000          90.210865541724           0.000000000000
           0.000000000000           0.000000000000         144.978081197815

            Scalar ZORA NMR Shielding
            -------------------------


          -----------------------------------------
          Chemical Shielding Tensors (GIAO, in ppm)
          -----------------------------------------


 Read ZORA NMR data from ./C1CC1_mol_0_conformer_0.zora_nmrcs

    0 giaofock schwarz done =     100.00%
    0 giaofock schwarz done =      99.23%
 Grid integrated density:      24.000005163114
 Requested integration accuracy:   0.10E-06
                                NWChem CPHF Module
                                ------------------



 solvent parameters
 solvname_short: cdcl3   
 solvname_long:  unknown                            
 dielec:       78.4000
 dielecinf:     1.7769

          ---------------
          -cosmo- solvent
          ---------------
 Cosmo: York-Karplus, doi: 10.1021/jp992097l
 dielectric constant -eps-     =  78.40
 screen = (eps-1)/(eps    )    =   0.98724
 surface charge correction     = lagrangian
 -lineq- algorithm             =   0
 -bem- low  level              =   2
 -bem- from -octahedral-
 gaussian surface charge width =   0.98000
 degree of switching           =   1.00000
 switching function tolerance  =   0.00010
 atomic radii = 
 --------------
    1  6.000  2.000
    2  6.000  2.000
    3  6.000  2.000
    4  1.000  1.300
    5  1.000  1.300
    6  1.000  1.300
    7  1.000  1.300
    8  1.000  1.300
    9  1.000  1.300

 solvent accessible surface
 --------------------------

 ---------- ATOMIC COORDINATES (A.U.) ------------ VDWR(ANG.) --
     1    0.42835963   -1.59865990    0.00000000     2.000
     2    1.17030027    1.17030027    0.00000000     2.000
     3   -1.59865990    0.42835963    0.00000000     2.000
     4    0.71668954   -2.67472177    1.71193012     1.300
     5    0.71668954   -2.67472177   -1.71193012     1.300
     6    1.95803223    1.95803223   -1.71193012     1.300
     7    1.95803223    1.95803223    1.71193012     1.300
     8   -2.67472177    0.71668954    1.71193012     1.300
     9   -2.67472177    0.71668954   -1.71193012     1.300
 number of segments per atom =         32
 number of   points per atom =         32
 atom (   nspa,  nppa )
 ----------------------
    1 (     20,     0 )       0
    2 (     18,     0 )       0
    3 (     20,     0 )       0
    4 (     15,     0 )       0
    5 (     15,     0 )       0
    6 (     13,     0 )       0
    7 (     13,     0 )       0
    8 (     15,     0 )       0
    9 (     15,     0 )       0
 number of -cosmo- surface points =      144
 molecular surface =     91.966 angstrom**2
 molecular volume  =     52.565 angstrom**3
 G(cav/disp)       =      1.320 kcal/mol
 ...... end of -cosmo- initialization ......


  scftype          =     RHF 
  nclosed          =       12
  nopen            =        0
  variables        =      540
  # of vectors     =        3
  tolerance        = 0.10D-03
  level shift      = 0.00D+00
  max iterations   =       50
  max subspace     =       30

 Grid integrated density:      24.000005163109
 Requested integration accuracy:   0.10E-06
 SCF residual:    5.1945301730786777E-005


Iterative solution of linear equations
  No. of variables      540
  No. of equations        3
  Maximum subspace       30
        Iterations       50
       Convergence  1.0D-04
        Start time    289.4


   iter   nsub   residual    time
   ----  ------  --------  ---------
     1      3    3.41D-01     290.7
     2      6    5.27D-03     292.1
     3      9    1.82D-04     293.6
     4     12    7.50D-06     295.1

 Wrote CPHF data to ./C1CC1_mol_0_conformer_0.shieldcphf

 Calc. par tensor-> zora
      Atom:    1  H 
        Diamagnetic
     24.9842     -1.8769      1.8806
     -1.8769     31.5373     -7.0406
      1.8806     -7.0406     33.3888

        Paramagnetic
      2.6992      0.2244     -0.2796
      0.2244      1.9141      1.0353
     -0.2796      1.0353      3.2164

        Total Shielding Tensor
     27.6833     -1.6525      1.6011
     -1.6525     33.4514     -6.0052
      1.6011     -6.0052     36.6052

           isotropic =      32.5800
          anisotropy =      13.5445

          Principal Components and Axis System
                 1           2           3
               41.6096     28.8868     27.2435

      1         0.1615     -0.1995      0.9665
      2        -0.6060      0.7529      0.2566
      3         0.7789      0.6272     -0.0007



      Atom:    2  H 
        Diamagnetic
     24.9841     -1.8769     -1.8807
     -1.8769     31.5372      7.0406
     -1.8807      7.0406     33.3887

        Paramagnetic
      2.6992      0.2244      0.2796
      0.2244      1.9141     -1.0355
      0.2796     -1.0355      3.2164

        Total Shielding Tensor
     27.6834     -1.6525     -1.6012
     -1.6525     33.4514      6.0051
     -1.6012      6.0051     36.6052

           isotropic =      32.5800
          anisotropy =      13.5444

          Principal Components and Axis System
                 1           2           3
               41.6095     28.8869     27.2435

      1        -0.1615     -0.1994      0.9665
      2         0.6060      0.7529      0.2566
      3         0.7789     -0.6272      0.0007



      Atom:    3  H 
        Diamagnetic
     28.2698      3.7795     -5.1615
      3.7795     28.2776     -5.1641
     -5.1615     -5.1641     33.4306

        Paramagnetic
      2.3020     -0.4572      0.7678
     -0.4572      2.2976      0.7715
      0.7678      0.7715      3.1943

        Total Shielding Tensor
     30.5718      3.3223     -4.3937
      3.3223     30.5752     -4.3925
     -4.3937     -4.3925     36.6249

           isotropic =      32.5907
          anisotropy =      13.5460

          Principal Components and Axis System
                 1           2           3
               41.6213     28.8995     27.2512

      1        -0.4431      0.5502     -0.7077
      2        -0.4432      0.5518      0.7065
      3         0.7793      0.6267     -0.0007



      Atom:    4  H 
        Diamagnetic
     28.2698      3.7795      5.1614
      3.7795     28.2777      5.1641
      5.1614      5.1641     33.4307

        Paramagnetic
      2.3020     -0.4571     -0.7678
     -0.4571      2.2977     -0.7714
     -0.7678     -0.7714      3.1943

        Total Shielding Tensor
     30.5718      3.3224      4.3937
      3.3224     30.5754      4.3927
      4.3937      4.3927     36.6250

           isotropic =      32.5907
          anisotropy =      13.5461

          Principal Components and Axis System
                 1           2           3
               41.6215     28.8995     27.2512

      1         0.4431      0.5502     -0.7077
      2         0.4432      0.5518      0.7065
      3         0.7793     -0.6267      0.0007



      Atom:    5  H 
        Diamagnetic
     31.5142     -1.8819     -7.0421
     -1.8819     24.9593      1.8829
     -7.0421      1.8829     33.3613

        Paramagnetic
      1.9179      0.2256      1.0376
      0.2256      2.6984     -0.2828
      1.0376     -0.2828      3.2188

        Total Shielding Tensor
     33.4321     -1.6563     -6.0045
     -1.6563     27.6577      1.6001
     -6.0045      1.6001     36.5801

           isotropic =      32.5567
          anisotropy =      13.5448

          Principal Components and Axis System
                 1           2           3
               41.5865     28.8671     27.2164

      1        -0.6062      0.7525      0.2575
      2         0.1615     -0.2005      0.9663
      3         0.7787      0.6274     -0.0000



      Atom:    6  H 
        Diamagnetic
     31.5172     -1.8819      7.0419
     -1.8819     24.9626     -1.8830
      7.0419     -1.8830     33.3646

        Paramagnetic
      1.9188      0.2256     -1.0374
      0.2256      2.6993      0.2829
     -1.0374      0.2829      3.2190

        Total Shielding Tensor
     33.4361     -1.6563      6.0045
     -1.6563     27.6619     -1.6001
      6.0045     -1.6001     36.5836

           isotropic =      32.5605
          anisotropy =      13.5445

          Principal Components and Axis System
                 1           2           3
               41.5902     28.8709     27.2205

      1         0.6062      0.7524      0.2575
      2        -0.1616     -0.2005      0.9663
      3         0.7787     -0.6274      0.0000




 Task  times  cpu:       36.0s     wall:       40.1s


                                NWChem Input Module
                                -------------------


 Summary of allocated global arrays
-----------------------------------
  array 0 => double precision sf 1(57,57),  handle: -987 
  array 1 => double precision sf 1(57,57),  handle: -986 
  array 2 => double precision sf 1(57,57),  handle: -985 
  array 3 => double precision sf 1(57,57),  handle: -984 
  array 4 => double precision sf 1(57,57),  handle: -983 
  array 5 => double precision sf 1(57,57),  handle: -982 
  array 6 => double precision sf 1(57,57),  handle: -981 
  array 7 => double precision sf 1(57,57),  handle: -980 
  array 8 => double precision sf 1(57,57),  handle: -979 
  array 9 => double precision sf 1(57,57),  handle: -978 
  array 10 => double precision sf 1(57,57),  handle: -977 
  array 11 => double precision sf 1(57,57),  handle: -976 
  array 12 => double precision sf 1(57,57),  handle: -975 
  array 13 => double precision sf 1(57,57),  handle: -974 
  array 14 => double precision sf 1(57,57),  handle: -973 
  array 15 => double precision sf 1(57,57),  handle: -972 
  array 16 => double precision sf 1(57,57),  handle: -971 
  array 17 => double precision sf 1(57,57),  handle: -970 
  array 18 => double precision sf 1(57,57),  handle: -969 
  array 19 => double precision sf 1(57,57),  handle: -968 
  array 20 => double precision sf 1(57,57),  handle: -967 
  array 21 => double precision sf 1(57,57),  handle: -966 
  array 22 => double precision sf 1(57,57),  handle: -965 



                         GA Statistics for process    0
                         ------------------------------

       create   destroy   get      put      acc     scatter   gather  read&inc
calls: 4489     4328     1.05e+05 2.13e+04 3.67e+04   60        0     4288     
number of processes/call 0.00e+00 0.00e+00 0.00e+00 0.00e+00 0.00e+00
bytes total:             1.10e+08 2.22e+07 8.18e+07 2.24e+02 0.00e+00 3.43e+04
bytes remote:            9.48e+07 1.74e+07 7.37e+07 -1.12e+02 0.00e+00 0.00e+00
Max memory consumed for GA by this process: 375856 bytes

MA_summarize_allocated_blocks: starting scan ...
MA_summarize_allocated_blocks: scan completed: 0 heap blocks, 0 stack blocks
MA usage statistics:

	allocation statistics:
					      heap	     stack
					      ----	     -----
	current number of blocks	         0	         0
	maximum number of blocks	        66	        59
	current total bytes		         0	         0
	maximum total bytes		   1514272	  24872040
	maximum total K-bytes		      1515	     24873
	maximum total M-bytes		         2	        25


                                     CITATION
                                     --------
                Please cite the following reference when publishing
                           results obtained with NWChem:

          E. Apr, E. J. Bylaska, W. A. de Jong, N. Govind, K. Kowalski,
       T. P. Straatsma, M. Valiev, H. J. J. van Dam, Y. Alexeev, J. Anchell,
       V. Anisimov, F. W. Aquino, R. Atta-Fynn, J. Autschbach, N. P. Bauman,
     J. C. Becca, D. E. Bernholdt, K. Bhaskaran-Nair, S. Bogatko, P. Borowski,
        J. Boschen, J. Brabec, A. Bruner, E. Caut, Y. Chen, G. N. Chuev,
      C. J. Cramer, J. Daily, M. J. O. Deegan, T. H. Dunning Jr., M. Dupuis,
   K. G. Dyall, G. I. Fann, S. A. Fischer, A. Fonari, H. Frchtl, L. Gagliardi,
      J. Garza, N. Gawande, S. Ghosh, K. Glaesemann, A. W. Gtz, J. Hammond,
       V. Helms, E. D. Hermes, K. Hirao, S. Hirata, M. Jacquelin, L. Jensen,
   B. G. Johnson, H. Jnsson, R. A. Kendall, M. Klemm, R. Kobayashi, V. Konkov,
      S. Krishnamoorthy, M. Krishnan, Z. Lin, R. D. Lins, R. J. Littlefield,
      A. J. Logsdail, K. Lopata, W. Ma, A. V. Marenich, J. Martin del Campo,
   D. Mejia-Rodriguez, J. E. Moore, J. M. Mullin, T. Nakajima, D. R. Nascimento,
    J. A. Nichols, P. J. Nichols, J. Nieplocha, A. Otero-de-la-Roza, B. Palmer,
    A. Panyala, T. Pirojsirikul, B. Peng, R. Peverati, J. Pittner, L. Pollack,
   R. M. Richard, P. Sadayappan, G. C. Schatz, W. A. Shelton, D. W. Silverstein,
   D. M. A. Smith, T. A. Soares, D. Song, M. Swart, H. L. Taylor, G. S. Thomas,
            V. Tipparaju, D. G. Truhlar, K. Tsemekhman, T. Van Voorhis,
     . Vzquez-Mayagoitia, P. Verma, O. Villa, A. Vishnu, K. D. Vogiatzis,
        D. Wang, J. H. Weare, M. J. Williamson, T. L. Windus, K. Woliski,
        A. T. Wong, Q. Wu, C. Yang, Q. Yu, M. Zacharias, Z. Zhang, Y. Zhao,
                                and R. J. Harrison
                        "NWChem: Past, present, and future
                         J. Chem. Phys. 152, 184102 (2020)
                               doi:10.1063/5.0004997

                                      AUTHORS
                                      -------
     E. Apra, E. J. Bylaska, N. Govind, K. Kowalski, M. Valiev, W. A. de Jong,
      T. P. Straatsma, H. J. J. van Dam, D. Wang, T. L. Windus, N. P. Bauman,
       A. Panyala, J. Hammond, J. Autschbach, K. Bhaskaran-Nair, J. Brabec,
    K. Lopata, S. A. Fischer, S. Krishnamoorthy, M. Jacquelin, W. Ma, M. Klemm,
       O. Villa, Y. Chen, V. Anisimov, F. Aquino, S. Hirata, M. T. Hackler,
           Eric Hermes, L. Jensen, J. E. Moore, J. C. Becca, V. Konjkov,
            D. Mejia-Rodriguez, T. Risthaus, M. Malagoli, A. Marenich,
   A. Otero-de-la-Roza, J. Mullin, P. Nichols, R. Peverati, J. Pittner, Y. Zhao,
        P.-D. Fan, A. Fonari, M. J. Williamson, R. J. Harrison, J. R. Rehr,
      M. Dupuis, D. Silverstein, D. M. A. Smith, J. Nieplocha, V. Tipparaju,
      M. Krishnan, B. E. Van Kuiken, A. Vazquez-Mayagoitia, M. Swart, Q. Wu,
   T. Van Voorhis, A. A. Auer, M. Nooijen, L. D. Crosby, E. Brown, G. Cisneros,
     G. I. Fann, H. Fruchtl, J. Garza, K. Hirao, R. A. Kendall, J. A. Nichols,
       K. Tsemekhman, K. Wolinski, J. Anchell, D. E. Bernholdt, P. Borowski,
       T. Clark, D. Clerc, H. Dachsel, M. J. O. Deegan, K. Dyall, D. Elwood,
      E. Glendening, M. Gutowski, A. C. Hess, J. Jaffe, B. G. Johnson, J. Ju,
        R. Kobayashi, R. Kutteh, Z. Lin, R. Littlefield, X. Long, B. Meng,
      T. Nakajima, S. Niu, L. Pollack, M. Rosing, K. Glaesemann, G. Sandrone,
      M. Stave, H. Taylor, G. Thomas, J. H. van Lenthe, A. T. Wong, Z. Zhang.

 Total times  cpu:      269.9s     wall:      295.3s
