 argument  1 = C1CC1_mol_4_conformer_0.nw



============================== echo of input deck ==============================
start

title "Molecule conformer 0"

memory total 4000 mb

echo
geometry units angstroms
   C     -0.7760    -0.3842    -0.1316
   C      0.7329    -0.4794    -0.0077
   C      0.0430     0.8636     0.1393
   H     -1.3338    -0.7670     0.7492
   H     -1.1570    -0.4662    -1.1716
   H      1.0879    -0.9199     0.9481
   H      1.2647    -0.6189    -0.9727
   H      0.1574     1.5365    -0.7369
   H     -0.0193     1.2355     1.1839
end


basis spherical
* library 6-311G
end

driver
  maxiter 500
  xyz final
end

relativistic
  zora on
  zora:cutoff_NMR 1d-8
  zora:cutoff 1d-30
end

dft
  direct
  grid fine
  xc B3LYP
  mult 1
  maxiter 1500
  noprint "final vectors analysis" multipole
end

task dft optimize

task dft freq

property
  shielding 6 4 5 6 7 8 9
end

cosmo
   solvent cdcl3
end

task dft property
================================================================================


                                         
                                         


             Northwest Computational Chemistry Package (NWChem) 7.0.2
             --------------------------------------------------------


                    Environmental Molecular Sciences Laboratory
                       Pacific Northwest National Laboratory
                                Richland, WA 99352

                              Copyright (c) 1994-2020
                       Pacific Northwest National Laboratory
                            Battelle Memorial Institute

             NWChem is an open-source computational chemistry package
                        distributed under the terms of the
                      Educational Community License (ECL) 2.0
             A copy of the license is included with this distribution
                              in the LICENSE.TXT file

                                  ACKNOWLEDGMENT
                                  --------------

            This software and its documentation were developed at the
            EMSL at Pacific Northwest National Laboratory, a multiprogram
            national laboratory, operated for the U.S. Department of Energy
            by Battelle under Contract Number DE-AC05-76RL01830. Support
            for this work was provided by the Department of Energy Office
            of Biological and Environmental Research, Office of Basic
            Energy Sciences, and the Office of Advanced Scientific Computing.


           Job information
           ---------------

    hostname        = ponder
    program         = nwchem
    date            = Fri Aug  2 16:50:17 2024

    compiled        = Sat_Apr_09_17:12:10_2022
    source          = /build/nwchem-f1f4gx/nwchem-7.0.2/build-openmpi
    nwchem branch   = 7.0.2
    nwchem revision = N/A
    ga revision     = 5.8.1
    use scalapack   = T
    input           = C1CC1_mol_4_conformer_0.nw
    prefix          = C1CC1_mol_4_conformer_0.
    data base       = ./C1CC1_mol_4_conformer_0.db
    status          = startup
    nproc           =       40
    time left       =     -1s



           Memory information
           ------------------

    heap     =  131071998 doubles =   1000.0 Mbytes
    stack    =  131071995 doubles =   1000.0 Mbytes
    global   =  262144000 doubles =   2000.0 Mbytes (distinct from heap & stack)
    total    =  524287993 doubles =   4000.0 Mbytes
    verify   = yes
    hardfail = no 


           Directory information
           ---------------------

  0 permanent = .
  0 scratch   = .




                                NWChem Input Module
                                -------------------


                               Molecule conformer 0
                               --------------------

 Scaling coordinates for geometry "geometry" by  1.889725989
 (inverse scale =  0.529177249)

 C3H symmetry detected

          ------
          auto-z
          ------
  no constraints, skipping    0.0000000000000000     
  no constraints, skipping    0.0000000000000000     


                             Geometry "geometry" -> ""
                             -------------------------

 Output coordinates in angstroms (scale by  1.889725989 to convert to a.u.)

  No.       Tag          Charge          X              Y              Z
 ---- ---------------- ---------- -------------- -------------- --------------
    1 C                    6.0000    -0.74960526     0.45294024     0.00000000
    2 C                    6.0000    -0.01745513    -0.87564732     0.00000000
    3 C                    6.0000     0.76706038     0.42270707     0.00000000
    4 H                    1.0000    -1.20305896     0.72693306     0.97612499
    5 H                    1.0000    -1.20305896     0.72693306    -0.97612499
    6 H                    1.0000    -0.02801302    -1.40534616     0.97612499
    7 H                    1.0000    -0.02801302    -1.40534616    -0.97612499
    8 H                    1.0000     1.23107198     0.67841309    -0.97612499
    9 H                    1.0000     1.23107198     0.67841309     0.97612499

      Atomic Mass 
      ----------- 

      C                 12.000000
      H                  1.007825


 Effective nuclear repulsion energy (a.u.)      75.1274258350

            Nuclear Dipole moment (a.u.) 
            ----------------------------
        X                 Y               Z
 ---------------- ---------------- ----------------
     0.0000000000     0.0000000000     0.0000000000

      Symmetry information
      --------------------

 Group name             C3h       
 Group number             22
 Group order               6
 No. of unique centers     2

      Symmetry unique atoms

     1    4



                                Z-matrix (autoz)
                                -------- 

 Units are Angstrom for bonds and degrees for angles

      Type          Name      I     J     K     L     M      Value
      ----------- --------  ----- ----- ----- ----- ----- ----------
    1 Stretch                  1     2                       1.51697
    2 Stretch                  1     3                       1.51697
    3 Stretch                  1     4                       1.11064
    4 Stretch                  1     5                       1.11064
    5 Stretch                  2     3                       1.51697
    6 Stretch                  2     6                       1.11064
    7 Stretch                  2     7                       1.11064
    8 Stretch                  3     8                       1.11064
    9 Stretch                  3     9                       1.11064
   10 Bend                     1     2     3                60.00000
   11 Bend                     1     2     6               114.40089
   12 Bend                     1     2     7               114.40089
   13 Bend                     1     3     2                60.00000
   14 Bend                     1     3     8               114.40082
   15 Bend                     1     3     9               114.40082
   16 Bend                     2     1     3                60.00000
   17 Bend                     2     1     4               114.40082
   18 Bend                     2     1     5               114.40082
   19 Bend                     2     3     8               114.40089
   20 Bend                     2     3     9               114.40089
   21 Bend                     3     1     4               114.40089
   22 Bend                     3     1     5               114.40089
   23 Bend                     3     2     6               114.40082
   24 Bend                     3     2     7               114.40082
   25 Bend                     4     1     5               123.01710
   26 Bend                     6     2     7               123.01710
   27 Bend                     8     3     9               123.01710
   28 Torsion                  1     2     3     8        -105.18326
   29 Torsion                  1     2     3     9         105.18326
   30 Torsion                  1     3     2     6        -105.18336
   31 Torsion                  1     3     2     7         105.18336
   32 Torsion                  2     1     3     8         105.18336
   33 Torsion                  2     1     3     9        -105.18336
   34 Torsion                  2     3     1     4         105.18326
   35 Torsion                  2     3     1     5        -105.18326
   36 Torsion                  3     1     2     6         105.18326
   37 Torsion                  3     1     2     7        -105.18326
   38 Torsion                  3     2     1     4        -105.18336
   39 Torsion                  3     2     1     5         105.18336
   40 Torsion                  4     1     2     6          -0.00011
   41 Torsion                  4     1     2     7         149.63338
   42 Torsion                  4     1     3     8        -149.63338
   43 Torsion                  4     1     3     9          -0.00011
   44 Torsion                  5     1     2     6        -149.63338
   45 Torsion                  5     1     2     7           0.00011
   46 Torsion                  5     1     3     8           0.00011
   47 Torsion                  5     1     3     9         149.63338
   48 Torsion                  6     2     3     8         149.63338
   49 Torsion                  6     2     3     9          -0.00011
   50 Torsion                  7     2     3     8           0.00011
   51 Torsion                  7     2     3     9        -149.63338


            XYZ format geometry
            -------------------
     9
 geometry
 C                    -0.74960526     0.45294024     0.00000000
 C                    -0.01745513    -0.87564732     0.00000000
 C                     0.76706038     0.42270707     0.00000000
 H                    -1.20305896     0.72693306     0.97612499
 H                    -1.20305896     0.72693306    -0.97612499
 H                    -0.02801302    -1.40534616     0.97612499
 H                    -0.02801302    -1.40534616    -0.97612499
 H                     1.23107198     0.67841309    -0.97612499
 H                     1.23107198     0.67841309     0.97612499

 ==============================================================================
                                internuclear distances
 ------------------------------------------------------------------------------
       center one      |      center two      | atomic units |  angstroms
 ------------------------------------------------------------------------------
    2 C                |   1 C                |     2.86665  |     1.51697
    3 C                |   1 C                |     2.86665  |     1.51697
    3 C                |   2 C                |     2.86665  |     1.51697
    4 H                |   1 C                |     2.09880  |     1.11064
    5 H                |   1 C                |     2.09880  |     1.11064
    6 H                |   2 C                |     2.09880  |     1.11064
    7 H                |   2 C                |     2.09880  |     1.11064
    8 H                |   3 C                |     2.09880  |     1.11064
    9 H                |   3 C                |     2.09880  |     1.11064
 ------------------------------------------------------------------------------
                         number of included internuclear distances:          9
 ==============================================================================



 ==============================================================================
                                 internuclear angles
 ------------------------------------------------------------------------------
        center 1       |       center 2       |       center 3       |  degrees
 ------------------------------------------------------------------------------
    2 C                |   1 C                |   3 C                |    60.00
    2 C                |   1 C                |   4 H                |   114.40
    2 C                |   1 C                |   5 H                |   114.40
    3 C                |   1 C                |   4 H                |   114.40
    3 C                |   1 C                |   5 H                |   114.40
    4 H                |   1 C                |   5 H                |   123.02
    2 C                |   1 C                |   3 C                |    60.00
    1 C                |   2 C                |   6 H                |   114.40
    1 C                |   2 C                |   7 H                |   114.40
    3 C                |   2 C                |   6 H                |   114.40
    3 C                |   2 C                |   7 H                |   114.40
    6 H                |   2 C                |   7 H                |   123.02
    3 C                |   1 C                |   2 C                |    60.00
    1 C                |   3 C                |   8 H                |   114.40
    1 C                |   3 C                |   9 H                |   114.40
    2 C                |   3 C                |   8 H                |   114.40
    2 C                |   3 C                |   9 H                |   114.40
    8 H                |   3 C                |   9 H                |   123.02
 ------------------------------------------------------------------------------
                            number of included internuclear angles:         18
 ==============================================================================





 Summary of "ao basis" -> "" (spherical)
 ------------------------------------------------------------------------------
       Tag                 Description            Shells   Functions and Types
 ---------------- ------------------------------  ------  ---------------------
 *                           6-311G                   on all atoms 




                           NWChem Geometry Optimization
                           ----------------------------




                               Molecule conformer 0


  no constraints, skipping    0.0000000000000000     
 maximum gradient threshold         (gmax) =   0.000450
 rms gradient threshold             (grms) =   0.000300
 maximum cartesian step threshold   (xmax) =   0.001800
 rms cartesian step threshold       (xrms) =   0.001200
 fixed trust radius                (trust) =   0.300000
 maximum step size to saddle      (sadstp) =   0.100000
 energy precision                  (eprec) =   5.0D-06
 maximum number of steps          (nptopt) =  500
 initial hessian option           (inhess) =    0
 line search option               (linopt) =    1
 hessian update option            (modupd) =    1
 saddle point option              (modsad) =    0
 initial eigen-mode to follow     (moddir) =    0
 initial variable to follow       (vardir) =    0
 follow first negative mode     (firstneg) =    T
 apply conjugacy                    (opcg) =    F
 source of zmatrix                         =   autoz   


          -------------------
          Energy Minimization
          -------------------


 Names of Z-matrix variables 
    1              2              3              4              5         
    6              7              8              9             10         
   11             12             13             14             15         
   16             17             18             19             20         
   21             22             23             24             25         
   26             27             28             29             30         
   31             32             33             34             35         
   36             37             38             39             40         
   41             42             43             44             45         
   46             47             48             49             50         
   51         

 Variables with the same non-blank name are constrained to be equal


 Using diagonal initial Hessian 
 Scaling for Hessian diagonals: bonds = 1.00  angles = 0.25  torsions = 0.10

          --------
          Step   0
          --------


                         Geometry "geometry" -> "geometry"
                         ---------------------------------

 Output coordinates in angstroms (scale by  1.889725989 to convert to a.u.)

  No.       Tag          Charge          X              Y              Z
 ---- ---------------- ---------- -------------- -------------- --------------
    1 C                    6.0000    -0.74960526     0.45294024     0.00000000
    2 C                    6.0000    -0.01745513    -0.87564732     0.00000000
    3 C                    6.0000     0.76706038     0.42270707     0.00000000
    4 H                    1.0000    -1.20305896     0.72693306     0.97612499
    5 H                    1.0000    -1.20305896     0.72693306    -0.97612499
    6 H                    1.0000    -0.02801302    -1.40534616     0.97612499
    7 H                    1.0000    -0.02801302    -1.40534616    -0.97612499
    8 H                    1.0000     1.23107198     0.67841309    -0.97612499
    9 H                    1.0000     1.23107198     0.67841309     0.97612499

      Atomic Mass 
      ----------- 

      C                 12.000000
      H                  1.007825


 Effective nuclear repulsion energy (a.u.)      75.1274258350

            Nuclear Dipole moment (a.u.) 
            ----------------------------
        X                 Y               Z
 ---------------- ---------------- ----------------
     0.0000000000     0.0000000000     0.0000000000

      Symmetry information
      --------------------

 Group name             C3h       
 Group number             22
 Group order               6
 No. of unique centers     2

      Symmetry unique atoms

     1    4


                                 NWChem DFT Module
                                 -----------------


                               Molecule conformer 0


                      Basis "ao basis" -> "ao basis" (spherical)
                      -----
  C (Carbon)
  ----------
            Exponent  Coefficients 
       -------------- ---------------------------------------------------------
  1 S  4.56324000E+03  0.001967
  1 S  6.82024000E+02  0.015231
  1 S  1.54973000E+02  0.076127
  1 S  4.44553000E+01  0.260801
  1 S  1.30290000E+01  0.616462
  1 S  1.82773000E+00  0.221006

  2 S  2.09642000E+01  0.114660
  2 S  4.80331000E+00  0.919999
  2 S  1.45933000E+00 -0.003031

  3 P  2.09642000E+01  0.040249
  3 P  4.80331000E+00  0.237594
  3 P  1.45933000E+00  0.815854

  4 S  4.83456000E-01  1.000000

  5 P  4.83456000E-01  1.000000

  6 S  1.45585000E-01  1.000000

  7 P  1.45585000E-01  1.000000

  H (Hydrogen)
  ------------
            Exponent  Coefficients 
       -------------- ---------------------------------------------------------
  1 S  3.38650000E+01  0.025494
  1 S  5.09479000E+00  0.190373
  1 S  1.15879000E+00  0.852161

  2 S  3.25840000E-01  1.000000

  3 S  1.02741000E-01  1.000000



 Summary of "ao basis" -> "ao basis" (spherical)
 ------------------------------------------------------------------------------
       Tag                 Description            Shells   Functions and Types
 ---------------- ------------------------------  ------  ---------------------
 C                           6-311G                  7       13   4s3p
 H                           6-311G                  3        3   3s




 Summary of "ao basis" -> "ao basis" (spherical)
 ------------------------------------------------------------------------------
       Tag                 Description            Shells   Functions and Types
 ---------------- ------------------------------  ------  ---------------------
 C                           6-311G                  7       13   4s3p
 H                           6-311G                  3        3   3s


      Symmetry analysis of basis
      --------------------------

        a'         13
        e'+        13
        e'-        13
        a"          6
        e"+         6
        e"-         6

  Caching 1-el integrals 
  Rotation of axis 

            General Information
            -------------------
          SCF calculation type: DFT
          Wavefunction type:  closed shell.
          No. of atoms     :     9
          No. of electrons :    24
           Alpha electrons :    12
            Beta electrons :    12
          Charge           :     0
          Spin multiplicity:     1
          Use of symmetry is: on ; symmetry adaption is: on 
          Maximum number of iterations: ***
          This is a Direct SCF calculation.
          AO basis - number of functions:    57
                     number of shells:    39
          Convergence on energy requested:  1.00D-06
          Convergence on density requested:  1.00D-05
          Convergence on gradient requested:  5.00D-04

              XC Information
              --------------
                         B3LYP Method XC Potential
                     Hartree-Fock (Exact) Exchange  0.200          
                        Slater Exchange Functional  0.800 local    
                    Becke 1988 Exchange Functional  0.720 non-local
              Lee-Yang-Parr Correlation Functional  0.810          
                  VWN I RPA Correlation Functional  0.190 local    

             Grid Information
             ----------------
          Grid used for XC integration:  fine      
          Radial quadrature: Mura-Knowles        
          Angular quadrature: Lebedev. 
          Tag              B.-S. Rad. Rad. Pts. Rad. Cut. Ang. Pts.
          ---              ---------- --------- --------- ---------
          C                   0.70       70           8.0       590
          H                   0.35       60          10.0       590
          Grid pruning is: on 
          Number of quadrature shells:   130
          Spatial weights used:  Erf1

          Convergence Information
          -----------------------
          Convergence aids based upon iterative change in 
          total energy or number of iterations. 
          Levelshifting, if invoked, occurs when the 
          HOMO/LUMO gap drops below (HL_TOL):  1.00D-02
          DIIS, if invoked, will attempt to extrapolate 
          using up to (NFOCK): 10 stored Fock matrices.

                    Damping( 0%)  Levelshifting(0.5)       DIIS
                  --------------- ------------------- ---------------
          dE  on:    start            ASAP                start   
          dE off:    2 iters        *** iters           *** iters 


      Screening Tolerance Information
      -------------------------------
          Density screening/tol_rho:  1.00D-10
          AO Gaussian exp screening on grid/accAOfunc:  14
          CD Gaussian exp screening on grid/accCDfunc:  20
          XC Gaussian exp screening on grid/accXCfunc:  20
          Schwarz screening/accCoul:  1.00D-08

          Performing ZORA calculations
          ----------------------------


      Superposition of Atomic Density Guess
      -------------------------------------

 Sum of atomic energies:        -116.00451404

 Read atomic ZORA corrections from ./C1CC1_mol_4_conformer_0.zora_sf

 dft_zora_read: failed to open./C1CC1_mol_4_conformer_0.zora_sf
 Forcing recalculation of ZORA corrections
       Generating atomic ZORA corrections
       ----------------------------------

 In dft_scf:: zora:Knucl= F

 Grid_pts file          = ./C1CC1_mol_4_conformer_0.gridpts.00
 Record size in doubles =  12289        No. of grid_pts per rec  =   3070
 Max. records in memory =      2        Max. recs in file   =     13618

 Grid integrated density:      23.999989094529
 Requested integration accuracy:   0.10E-06

 Wrote atomic ZORA corrections to ./C1CC1_mol_4_conformer_0.zora_sf


      Superposition of Atomic Density Guess
      -------------------------------------

 Sum of atomic energies:        -116.00451404

      Non-variational initial energy
      ------------------------------

 Total energy =    -118.136775
 1-e energy   =    -302.451726
 2-e energy   =     109.187526
 HOMO         =      -0.346973
 LUMO         =       0.077794


      Symmetry analysis of molecular orbitals - initial
      -------------------------------------------------

  Numbering of irreducible representations: 

     1 a'          2 e'+         3 e'-         4 a"          5 e"+     
     6 e"-     

  Orbital symmetries:

     1 a'          2 e'+         3 e'+         4 a'          5 e'+     
     6 e'+         7 a"          8 a'          9 e"+        10 e"+     
    11 e'+        12 e'+        13 a'         14 a"         15 e'+     
    16 e'+        17 a'         18 e"+        19 e"+        20 e'+     
    21 e'+        22 a'      

   Time after variat. SCF:      4.6
   Time prior to 1st pass:      4.6
 Grid integrated density:      23.999994643536
 Requested integration accuracy:   0.10E-06

           Memory utilization after 1st SCF pass: 
           Heap Space remaining (MW):      131.04           131041678
          Stack Space remaining (MW):      131.06           131064900

   convergence    iter        energy       DeltaE   RMS-Dens  Diis-err    time
 ---------------- ----- ----------------- --------- --------- ---------  ------
 d= 0,ls=0.0,diis     1   -117.9144548736 -1.93D+02  6.25D-03  4.05D-01     6.0
 Grid integrated density:      23.999995375645
 Requested integration accuracy:   0.10E-06
 d= 0,ls=0.0,diis     2   -117.9476914257 -3.32D-02  1.02D-03  1.72D-03     7.4
 Grid integrated density:      23.999995348722
 Requested integration accuracy:   0.10E-06
 d= 0,ls=0.0,diis     3   -117.9478880854 -1.97D-04  2.23D-04  2.03D-04     8.7
 Grid integrated density:      23.999995362004
 Requested integration accuracy:   0.10E-06
 d= 0,ls=0.0,diis     4   -117.9478991489 -1.11D-05  1.22D-04  1.07D-04    10.0
 Grid integrated density:      23.999995357444
 Requested integration accuracy:   0.10E-06
 d= 0,ls=0.0,diis     5   -117.9479134444 -1.43D-05  6.39D-06  6.32D-08    10.6
 Grid integrated density:      23.999995357377
 Requested integration accuracy:   0.10E-06
 d= 0,ls=0.0,diis     6   -117.9479134536 -9.25D-09  1.09D-06  7.72D-10    11.6
(nogshift,skip_gshiftAOev,done_Fji)=( 1,F,F)


         Total DFT energy =     -117.947913453643
      One electron energy =     -305.642401481788
           Coulomb energy =      131.051442024499
    Exchange-Corr. energy =      -18.484379831357
 Nuclear repulsion energy =       75.127425835003

       Scaling correction =        0.026257366015

 Numeric. integr. density =       23.999995357377

     Total iterative time =      7.0s



                  Occupations of the irreducible representations
                  ----------------------------------------------

                     irrep           alpha         beta
                     --------     --------     --------
                     a'                3.0          3.0
                     e'+               6.0          6.0
                     e'-               0.0          0.0
                     a"                1.0          1.0
                     e"+               2.0          2.0
                     e"-               0.0          0.0


 center of mass
 --------------
 x =   0.00000000 y =   0.00000000 z =   0.00000000

 moments of inertia (a.u.)
 ------------------
          91.213968062164          -0.000000000000           0.000000000000
          -0.000000000000          91.213968062164          -0.000000000000
           0.000000000000          -0.000000000000         141.277456240656

            General Information
            -------------------
          SCF calculation type: DFT
          Wavefunction type:  closed shell.
          No. of atoms     :     9
          No. of electrons :    24
           Alpha electrons :    12
            Beta electrons :    12
          Charge           :     0
          Spin multiplicity:     1
          Use of symmetry is: on ; symmetry adaption is: on 
          Maximum number of iterations: ***
          This is a Direct SCF calculation.
          AO basis - number of functions:    57
                     number of shells:    39
          Convergence on energy requested:  1.00D-06
          Convergence on density requested:  1.00D-05
          Convergence on gradient requested:  5.00D-04

              XC Information
              --------------
                         B3LYP Method XC Potential
                     Hartree-Fock (Exact) Exchange  0.200          
                        Slater Exchange Functional  0.800 local    
                    Becke 1988 Exchange Functional  0.720 non-local
              Lee-Yang-Parr Correlation Functional  0.810          
                  VWN I RPA Correlation Functional  0.190 local    

             Grid Information
             ----------------
          Grid used for XC integration:  fine      
          Radial quadrature: Mura-Knowles        
          Angular quadrature: Lebedev. 
          Tag              B.-S. Rad. Rad. Pts. Rad. Cut. Ang. Pts.
          ---              ---------- --------- --------- ---------
          C                   0.70       70           8.0       590
          H                   0.35       60          10.0       590
          Grid pruning is: on 
          Number of quadrature shells:   130
          Spatial weights used:  Erf1

          Convergence Information
          -----------------------
          Convergence aids based upon iterative change in 
          total energy or number of iterations. 
          Levelshifting, if invoked, occurs when the 
          HOMO/LUMO gap drops below (HL_TOL):  1.00D-02
          DIIS, if invoked, will attempt to extrapolate 
          using up to (NFOCK): 10 stored Fock matrices.

                    Damping( 0%)  Levelshifting(0.5)       DIIS
                  --------------- ------------------- ---------------
          dE  on:    start            ASAP                start   
          dE off:    2 iters        *** iters           *** iters 


      Screening Tolerance Information
      -------------------------------
          Density screening/tol_rho:  1.00D-10
          AO Gaussian exp screening on grid/accAOfunc:  14
          CD Gaussian exp screening on grid/accCDfunc:  20
          XC Gaussian exp screening on grid/accXCfunc:  20
          Schwarz screening/accCoul:  1.00D-08



                            NWChem DFT Gradient Module
                            --------------------------


                               Molecule conformer 0



  charge          =   0.00
  wavefunction    = closed shell

  Rotation of axis 
  Using symmetry


                         DFT ENERGY GRADIENTS

    atom               coordinates                        gradient
                 x          y          z           x          y          z
   1 C      -1.416549   0.855933   0.000000    0.006034  -0.003647   0.000000
   2 C      -0.032985  -1.654733   0.000000    0.000142   0.007049   0.000000
   3 C       1.449534   0.798801   0.000000   -0.006175  -0.003402   0.000000
   4 H      -2.273452   1.373704   1.844609    0.001863  -0.001127   0.023889
   5 H      -2.273452   1.373704  -1.844609    0.001863  -0.001127  -0.023889
   6 H      -0.052937  -2.655719   1.844609    0.000045   0.002176   0.023889
   7 H      -0.052937  -2.655719  -1.844609    0.000045   0.002176  -0.023889
   8 H       2.326389   1.282015  -1.844609   -0.001907  -0.001050  -0.023889
   9 H       2.326389   1.282015   1.844609   -0.001907  -0.001050   0.023889

                 ----------------------------------------
                 |  Time  |  1-e(secs)   |  2-e(secs)   |
                 ----------------------------------------
                 |  CPU   |       0.00   |       0.02   |
                 ----------------------------------------
                 |  WALL  |       0.00   |       0.02   |
                 ----------------------------------------
  no constraints, skipping    0.0000000000000000     

@ Step       Energy      Delta E   Gmax     Grms     Xrms     Xmax   Walltime
@ ---- ---------------- -------- -------- -------- -------- -------- --------
@    0    -117.94791345  0.0D+00  0.01996  0.00735  0.00000  0.00000     12.6
                                                                    



                                Z-matrix (autoz)
                                -------- 

 Units are Angstrom for bonds and degrees for angles

      Type          Name      I     J     K     L     M      Value     Gradient
      ----------- --------  ----- ----- ----- ----- ----- ---------- ----------
    1 Stretch                  1     2                       1.51697   -0.00658
    2 Stretch                  1     3                       1.51697   -0.00658
    3 Stretch                  1     4                       1.11064    0.01996
    4 Stretch                  1     5                       1.11064    0.01996
    5 Stretch                  2     3                       1.51697   -0.00658
    6 Stretch                  2     6                       1.11064    0.01996
    7 Stretch                  2     7                       1.11064    0.01996
    8 Stretch                  3     8                       1.11064    0.01996
    9 Stretch                  3     9                       1.11064    0.01996
   10 Bend                     1     2     3                60.00000    0.00000
   11 Bend                     1     2     6               114.40089   -0.00221
   12 Bend                     1     2     7               114.40089   -0.00221
   13 Bend                     1     3     2                60.00000    0.00000
   14 Bend                     1     3     8               114.40082   -0.00221
   15 Bend                     1     3     9               114.40082   -0.00221
   16 Bend                     2     1     3                60.00000   -0.00000
   17 Bend                     2     1     4               114.40082   -0.00221
   18 Bend                     2     1     5               114.40082   -0.00221
   19 Bend                     2     3     8               114.40089   -0.00221
   20 Bend                     2     3     9               114.40089   -0.00221
   21 Bend                     3     1     4               114.40089   -0.00221
   22 Bend                     3     1     5               114.40089   -0.00221
   23 Bend                     3     2     6               114.40082   -0.00221
   24 Bend                     3     2     7               114.40082   -0.00221
   25 Bend                     4     1     5               123.01710    0.00530
   26 Bend                     6     2     7               123.01710    0.00530
   27 Bend                     8     3     9               123.01710    0.00530
   28 Torsion                  1     2     3     8        -105.18326    0.00160
   29 Torsion                  1     2     3     9         105.18326   -0.00160
   30 Torsion                  1     3     2     6        -105.18336    0.00160
   31 Torsion                  1     3     2     7         105.18336   -0.00160
   32 Torsion                  2     1     3     8         105.18336   -0.00160
   33 Torsion                  2     1     3     9        -105.18336    0.00160
   34 Torsion                  2     3     1     4         105.18326   -0.00160
   35 Torsion                  2     3     1     5        -105.18326    0.00160
   36 Torsion                  3     1     2     6         105.18326   -0.00160
   37 Torsion                  3     1     2     7        -105.18326    0.00160
   38 Torsion                  3     2     1     4        -105.18336    0.00160
   39 Torsion                  3     2     1     5         105.18336   -0.00160
   40 Torsion                  4     1     2     6          -0.00011    0.00000
   41 Torsion                  4     1     2     7         149.63338    0.00320
   42 Torsion                  4     1     3     8        -149.63338   -0.00320
   43 Torsion                  4     1     3     9          -0.00011    0.00000
   44 Torsion                  5     1     2     6        -149.63338   -0.00320
   45 Torsion                  5     1     2     7           0.00011   -0.00000
   46 Torsion                  5     1     3     8           0.00011   -0.00000
   47 Torsion                  5     1     3     9         149.63338    0.00320
   48 Torsion                  6     2     3     8         149.63338    0.00320
   49 Torsion                  6     2     3     9          -0.00011    0.00000
   50 Torsion                  7     2     3     8           0.00011   -0.00000
   51 Torsion                  7     2     3     9        -149.63338   -0.00320

 Restricting large step in mode   11 eval= 4.4D-02 step=-3.5D-01 new=-3.0D-01
  no constraints, skipping    0.0000000000000000     
  no constraints, skipping    0.0000000000000000     
  no constraints, skipping    0.0000000000000000     
  no constraints, skipping    0.0000000000000000     
  no constraints, skipping    0.0000000000000000     
  no constraints, skipping    0.0000000000000000     
  no constraints, skipping    0.0000000000000000     
  no constraints, skipping    0.0000000000000000     

                                 NWChem DFT Module
                                 -----------------


                               Molecule conformer 0




 Summary of "ao basis" -> "ao basis" (spherical)
 ------------------------------------------------------------------------------
       Tag                 Description            Shells   Functions and Types
 ---------------- ------------------------------  ------  ---------------------
 C                           6-311G                  7       13   4s3p
 H                           6-311G                  3        3   3s


      Symmetry analysis of basis
      --------------------------

        a'         13
        e'+        13
        e'-        13
        a"          6
        e"+         6
        e"-         6

  Caching 1-el integrals 
  Rotation of axis 

            General Information
            -------------------
          SCF calculation type: DFT
          Wavefunction type:  closed shell.
          No. of atoms     :     9
          No. of electrons :    24
           Alpha electrons :    12
            Beta electrons :    12
          Charge           :     0
          Spin multiplicity:     1
          Use of symmetry is: on ; symmetry adaption is: on 
          Maximum number of iterations: ***
          This is a Direct SCF calculation.
          AO basis - number of functions:    57
                     number of shells:    39
          Convergence on energy requested:  1.00D-06
          Convergence on density requested:  1.00D-05
          Convergence on gradient requested:  5.00D-04

              XC Information
              --------------
                         B3LYP Method XC Potential
                     Hartree-Fock (Exact) Exchange  0.200          
                        Slater Exchange Functional  0.800 local    
                    Becke 1988 Exchange Functional  0.720 non-local
              Lee-Yang-Parr Correlation Functional  0.810          
                  VWN I RPA Correlation Functional  0.190 local    

             Grid Information
             ----------------
          Grid used for XC integration:  fine      
          Radial quadrature: Mura-Knowles        
          Angular quadrature: Lebedev. 
          Tag              B.-S. Rad. Rad. Pts. Rad. Cut. Ang. Pts.
          ---              ---------- --------- --------- ---------
          C                   0.70       70           8.0       590
          H                   0.35       60          10.0       590
          Grid pruning is: on 
          Number of quadrature shells:   130
          Spatial weights used:  Erf1

          Convergence Information
          -----------------------
          Convergence aids based upon iterative change in 
          total energy or number of iterations. 
          Levelshifting, if invoked, occurs when the 
          HOMO/LUMO gap drops below (HL_TOL):  1.00D-02
          DIIS, if invoked, will attempt to extrapolate 
          using up to (NFOCK): 10 stored Fock matrices.

                    Damping( 0%)  Levelshifting(0.5)       DIIS
                  --------------- ------------------- ---------------
          dE  on:    start            ASAP                start   
          dE off:    2 iters        *** iters           *** iters 


      Screening Tolerance Information
      -------------------------------
          Density screening/tol_rho:  1.00D-10
          AO Gaussian exp screening on grid/accAOfunc:  14
          CD Gaussian exp screening on grid/accCDfunc:  20
          XC Gaussian exp screening on grid/accXCfunc:  20
          Schwarz screening/accCoul:  1.00D-08

          Performing ZORA calculations
          ----------------------------


      Superposition of Atomic Density Guess
      -------------------------------------

 Sum of atomic energies:        -116.00451404

 Read atomic ZORA corrections from ./C1CC1_mol_4_conformer_0.zora_sf

 Forcing recalculation of ZORA corrections
       Generating atomic ZORA corrections
       ----------------------------------

 In dft_scf:: zora:Knucl= F

 Grid_pts file          = ./C1CC1_mol_4_conformer_0.gridpts.00
 Record size in doubles =  12289        No. of grid_pts per rec  =   3070
 Max. records in memory =      2        Max. recs in file   =     13618

 Grid integrated density:      23.999990400103
 Requested integration accuracy:   0.10E-06

 Wrote atomic ZORA corrections to ./C1CC1_mol_4_conformer_0.zora_sf


 Loading old vectors from job with title :

Molecule conformer 0


      Symmetry analysis of molecular orbitals - initial
      -------------------------------------------------

  Numbering of irreducible representations: 

     1 a'          2 e'+         3 e'-         4 a"          5 e"+     
     6 e"-     

  Orbital symmetries:

     1 a'          2 e'+         3 e'+         4 a'          5 e'+     
     6 e'+         7 a"          8 a'          9 e"+        10 e"+     
    11 e'+        12 e'+        13 a'         14 a"         15 e'+     
    16 e'+        17 a'         18 e"+        19 e"+        20 e'+     
    21 e'+        22 a'      

   Time after variat. SCF:     18.1
   Time prior to 1st pass:     18.1
 Grid integrated density:      23.999995529519
 Requested integration accuracy:   0.10E-06

           Memory utilization after 1st SCF pass: 
           Heap Space remaining (MW):      131.04           131041678
          Stack Space remaining (MW):      131.06           131064900

   convergence    iter        energy       DeltaE   RMS-Dens  Diis-err    time
 ---------------- ----- ----------------- --------- --------- ---------  ------
 d= 0,ls=0.0,diis     1   -117.9542548594 -1.93D+02  2.09D-03  9.50D-03    19.4
 Grid integrated density:      23.999995523299
 Requested integration accuracy:   0.10E-06
 d= 0,ls=0.0,diis     2   -117.9552611656 -1.01D-03  6.67D-04  1.73D-03    20.3
 Grid integrated density:      23.999995478426
 Requested integration accuracy:   0.10E-06
 d= 0,ls=0.0,diis     3   -117.9553907319 -1.30D-04  3.17D-04  7.57D-04    21.3
 Grid integrated density:      23.999995491811
 Requested integration accuracy:   0.10E-06
 d= 0,ls=0.0,diis     4   -117.9554892606 -9.85D-05  3.53D-05  1.30D-06    22.6
 Grid integrated density:      23.999995491071
 Requested integration accuracy:   0.10E-06
 d= 0,ls=0.0,diis     5   -117.9554894470 -1.86D-07  2.24D-06  1.21D-08    23.5
(nogshift,skip_gshiftAOev,done_Fji)=( 1,F,F)


         Total DFT energy =     -117.955489447043
      One electron energy =     -306.234294043917
           Coulomb energy =      131.376436738674
    Exchange-Corr. energy =      -18.541936581089
 Nuclear repulsion energy =       75.444304439289

       Scaling correction =        0.026240374310

 Numeric. integr. density =       23.999995491071

     Total iterative time =      5.4s



                  Occupations of the irreducible representations
                  ----------------------------------------------

                     irrep           alpha         beta
                     --------     --------     --------
                     a'                3.0          3.0
                     e'+               6.0          6.0
                     e'-               0.0          0.0
                     a"                1.0          1.0
                     e"+               2.0          2.0
                     e"-               0.0          0.0


 center of mass
 --------------
 x =  -0.00000000 y =  -0.00000000 z =   0.00000000

 moments of inertia (a.u.)
 ------------------
          90.558188850692           0.000000000000           0.000000000000
           0.000000000000          90.558188850692           0.000000000000
           0.000000000000           0.000000000000         143.456665272438
 Line search: 
     step= 1.00 grad=-1.2D-02 hess= 4.6D-03 energy=   -117.955489 mode=downhill
 new step= 1.33                   predicted energy=   -117.955992
  no constraints, skipping    0.0000000000000000     
  no constraints, skipping    0.0000000000000000     
  no constraints, skipping    0.0000000000000000     
  no constraints, skipping    0.0000000000000000     
  no constraints, skipping    0.0000000000000000     
  no constraints, skipping    0.0000000000000000     
  no constraints, skipping    0.0000000000000000     
  no constraints, skipping    0.0000000000000000     

          --------
          Step   1
          --------


                         Geometry "geometry" -> "geometry"
                         ---------------------------------

 Output coordinates in angstroms (scale by  1.889725989 to convert to a.u.)

  No.       Tag          Charge          X              Y              Z
 ---- ---------------- ---------- -------------- -------------- --------------
    1 C                    6.0000    -0.75569683     0.45662129     0.00000000
    2 C                    6.0000    -0.01759723    -0.88276329     0.00000000
    3 C                    6.0000     0.77329405     0.42614200     0.00000000
    4 H                    1.0000    -1.22082957     0.73767063     0.91979709
    5 H                    1.0000    -1.22082957     0.73767063    -0.91979709
    6 H                    1.0000    -0.02842673    -1.42610473     0.91979709
    7 H                    1.0000    -0.02842673    -1.42610473    -0.91979709
    8 H                    1.0000     1.24925629     0.68843410    -0.91979709
    9 H                    1.0000     1.24925629     0.68843410     0.91979709

      Atomic Mass 
      ----------- 

      C                 12.000000
      H                  1.007825


 Effective nuclear repulsion energy (a.u.)      75.5593282856

            Nuclear Dipole moment (a.u.) 
            ----------------------------
        X                 Y               Z
 ---------------- ---------------- ----------------
    -0.0000000000    -0.0000000000     0.0000000000

      Symmetry information
      --------------------

 Group name             C3h       
 Group number             22
 Group order               6
 No. of unique centers     2

      Symmetry unique atoms

     1    4


                                 NWChem DFT Module
                                 -----------------


                               Molecule conformer 0




 Summary of "ao basis" -> "ao basis" (spherical)
 ------------------------------------------------------------------------------
       Tag                 Description            Shells   Functions and Types
 ---------------- ------------------------------  ------  ---------------------
 C                           6-311G                  7       13   4s3p
 H                           6-311G                  3        3   3s


      Symmetry analysis of basis
      --------------------------

        a'         13
        e'+        13
        e'-        13
        a"          6
        e"+         6
        e"-         6

  Caching 1-el integrals 
  Rotation of axis 

            General Information
            -------------------
          SCF calculation type: DFT
          Wavefunction type:  closed shell.
          No. of atoms     :     9
          No. of electrons :    24
           Alpha electrons :    12
            Beta electrons :    12
          Charge           :     0
          Spin multiplicity:     1
          Use of symmetry is: on ; symmetry adaption is: on 
          Maximum number of iterations: ***
          This is a Direct SCF calculation.
          AO basis - number of functions:    57
                     number of shells:    39
          Convergence on energy requested:  1.00D-06
          Convergence on density requested:  1.00D-05
          Convergence on gradient requested:  5.00D-04

              XC Information
              --------------
                         B3LYP Method XC Potential
                     Hartree-Fock (Exact) Exchange  0.200          
                        Slater Exchange Functional  0.800 local    
                    Becke 1988 Exchange Functional  0.720 non-local
              Lee-Yang-Parr Correlation Functional  0.810          
                  VWN I RPA Correlation Functional  0.190 local    

             Grid Information
             ----------------
          Grid used for XC integration:  fine      
          Radial quadrature: Mura-Knowles        
          Angular quadrature: Lebedev. 
          Tag              B.-S. Rad. Rad. Pts. Rad. Cut. Ang. Pts.
          ---              ---------- --------- --------- ---------
          C                   0.70       70           8.0       590
          H                   0.35       60          10.0       590
          Grid pruning is: on 
          Number of quadrature shells:   130
          Spatial weights used:  Erf1

          Convergence Information
          -----------------------
          Convergence aids based upon iterative change in 
          total energy or number of iterations. 
          Levelshifting, if invoked, occurs when the 
          HOMO/LUMO gap drops below (HL_TOL):  1.00D-02
          DIIS, if invoked, will attempt to extrapolate 
          using up to (NFOCK): 10 stored Fock matrices.

                    Damping( 0%)  Levelshifting(0.5)       DIIS
                  --------------- ------------------- ---------------
          dE  on:    start            ASAP                start   
          dE off:    2 iters        *** iters           *** iters 


      Screening Tolerance Information
      -------------------------------
          Density screening/tol_rho:  1.00D-10
          AO Gaussian exp screening on grid/accAOfunc:  14
          CD Gaussian exp screening on grid/accCDfunc:  20
          XC Gaussian exp screening on grid/accXCfunc:  20
          Schwarz screening/accCoul:  1.00D-08

          Performing ZORA calculations
          ----------------------------


      Superposition of Atomic Density Guess
      -------------------------------------

 Sum of atomic energies:        -116.00451404

 Read atomic ZORA corrections from ./C1CC1_mol_4_conformer_0.zora_sf

 Forcing recalculation of ZORA corrections
       Generating atomic ZORA corrections
       ----------------------------------

 In dft_scf:: zora:Knucl= F

 Grid_pts file          = ./C1CC1_mol_4_conformer_0.gridpts.00
 Record size in doubles =  12289        No. of grid_pts per rec  =   3070
 Max. records in memory =      2        Max. recs in file   =     13618

 Grid integrated density:      23.999991810706
 Requested integration accuracy:   0.10E-06

 Wrote atomic ZORA corrections to ./C1CC1_mol_4_conformer_0.zora_sf


 Loading old vectors from job with title :

Molecule conformer 0


      Symmetry analysis of molecular orbitals - initial
      -------------------------------------------------

  Numbering of irreducible representations: 

     1 a'          2 e'+         3 e'-         4 a"          5 e"+     
     6 e"-     

  Orbital symmetries:

     1 a'          2 e'+         3 e'+         4 a'          5 e'+     
     6 e'+         7 a"          8 a'          9 e"+        10 e"+     
    11 e'+        12 e'+        13 a'         14 a"         15 e'+     
    16 e'+        17 a'         18 e"+        19 e"+        20 e'+     
    21 e'+        22 a'      

   Time after variat. SCF:     29.5
   Time prior to 1st pass:     29.5
 Grid integrated density:      23.999996101445
 Requested integration accuracy:   0.10E-06

           Memory utilization after 1st SCF pass: 
           Heap Space remaining (MW):      131.04           131041678
          Stack Space remaining (MW):      131.06           131064900

   convergence    iter        energy       DeltaE   RMS-Dens  Diis-err    time
 ---------------- ----- ----------------- --------- --------- ---------  ------
 d= 0,ls=0.0,diis     1   -117.9557042121 -1.94D+02  6.79D-04  1.11D-03    30.5
 Grid integrated density:      23.999996094094
 Requested integration accuracy:   0.10E-06
 d= 0,ls=0.0,diis     2   -117.9558202802 -1.16D-04  2.21D-04  1.92D-04    31.5
 Grid integrated density:      23.999996080458
 Requested integration accuracy:   0.10E-06
 d= 0,ls=0.0,diis     3   -117.9558345640 -1.43D-05  1.06D-04  8.42D-05    32.6
 Grid integrated density:      23.999996084843
 Requested integration accuracy:   0.10E-06
 d= 0,ls=0.0,diis     4   -117.9558454827 -1.09D-05  1.19D-05  1.59D-07    33.8
 Grid integrated density:      23.999996084535
 Requested integration accuracy:   0.10E-06
 d= 0,ls=0.0,diis     5   -117.9558455054 -2.27D-08  7.62D-07  1.35D-09    34.9
(nogshift,skip_gshiftAOev,done_Fji)=( 1,F,F)


         Total DFT energy =     -117.955845505371
      One electron energy =     -306.445094504349
           Coulomb energy =      131.491797998444
    Exchange-Corr. energy =      -18.561877285082
 Nuclear repulsion energy =       75.559328285615

       Scaling correction =        0.026237532485

 Numeric. integr. density =       23.999996084535

     Total iterative time =      5.5s



                  Occupations of the irreducible representations
                  ----------------------------------------------

                     irrep           alpha         beta
                     --------     --------     --------
                     a'                3.0          3.0
                     e'+               6.0          6.0
                     e'-               0.0          0.0
                     a"                1.0          1.0
                     e"+               2.0          2.0
                     e"-               0.0          0.0


 center of mass
 --------------
 x =   0.00000000 y =  -0.00000000 z =   0.00000000

 moments of inertia (a.u.)
 ------------------
          90.347369300213          -0.000000000000           0.000000000000
          -0.000000000000          90.347369300213           0.000000000000
           0.000000000000           0.000000000000         144.156457959739

            General Information
            -------------------
          SCF calculation type: DFT
          Wavefunction type:  closed shell.
          No. of atoms     :     9
          No. of electrons :    24
           Alpha electrons :    12
            Beta electrons :    12
          Charge           :     0
          Spin multiplicity:     1
          Use of symmetry is: on ; symmetry adaption is: on 
          Maximum number of iterations: ***
          This is a Direct SCF calculation.
          AO basis - number of functions:    57
                     number of shells:    39
          Convergence on energy requested:  1.00D-06
          Convergence on density requested:  1.00D-05
          Convergence on gradient requested:  5.00D-04

              XC Information
              --------------
                         B3LYP Method XC Potential
                     Hartree-Fock (Exact) Exchange  0.200          
                        Slater Exchange Functional  0.800 local    
                    Becke 1988 Exchange Functional  0.720 non-local
              Lee-Yang-Parr Correlation Functional  0.810          
                  VWN I RPA Correlation Functional  0.190 local    

             Grid Information
             ----------------
          Grid used for XC integration:  fine      
          Radial quadrature: Mura-Knowles        
          Angular quadrature: Lebedev. 
          Tag              B.-S. Rad. Rad. Pts. Rad. Cut. Ang. Pts.
          ---              ---------- --------- --------- ---------
          C                   0.70       70           8.0       590
          H                   0.35       60          10.0       590
          Grid pruning is: on 
          Number of quadrature shells:   130
          Spatial weights used:  Erf1

          Convergence Information
          -----------------------
          Convergence aids based upon iterative change in 
          total energy or number of iterations. 
          Levelshifting, if invoked, occurs when the 
          HOMO/LUMO gap drops below (HL_TOL):  1.00D-02
          DIIS, if invoked, will attempt to extrapolate 
          using up to (NFOCK): 10 stored Fock matrices.

                    Damping( 0%)  Levelshifting(0.5)       DIIS
                  --------------- ------------------- ---------------
          dE  on:    start            ASAP                start   
          dE off:    2 iters        *** iters           *** iters 


      Screening Tolerance Information
      -------------------------------
          Density screening/tol_rho:  1.00D-10
          AO Gaussian exp screening on grid/accAOfunc:  14
          CD Gaussian exp screening on grid/accCDfunc:  20
          XC Gaussian exp screening on grid/accXCfunc:  20
          Schwarz screening/accCoul:  1.00D-08



                            NWChem DFT Gradient Module
                            --------------------------


                               Molecule conformer 0



  charge          =   0.00
  wavefunction    = closed shell

  Rotation of axis 
  Using symmetry


                         DFT ENERGY GRADIENTS

    atom               coordinates                        gradient
                 x          y          z           x          y          z
   1 C      -1.428060   0.862889   0.000000   -0.019627   0.011861   0.000000
   2 C      -0.033254  -1.668181   0.000000   -0.000458  -0.022928   0.000000
   3 C       1.461314   0.805292   0.000000    0.020085   0.011068   0.000000
   4 H      -2.307033   1.393995   1.738164    0.008133  -0.004915  -0.003183
   5 H      -2.307033   1.393995  -1.738164    0.008133  -0.004915   0.003183
   6 H      -0.053719  -2.694947   1.738164    0.000190   0.009501  -0.003183
   7 H      -0.053719  -2.694947  -1.738164    0.000190   0.009501   0.003183
   8 H       2.360752   1.300952  -1.738164   -0.008323  -0.004586   0.003183
   9 H       2.360752   1.300952   1.738164   -0.008323  -0.004586  -0.003183

                 ----------------------------------------
                 |  Time  |  1-e(secs)   |  2-e(secs)   |
                 ----------------------------------------
                 |  CPU   |       0.00   |       0.02   |
                 ----------------------------------------
                 |  WALL  |       0.00   |       0.02   |
                 ----------------------------------------
  no constraints, skipping    0.0000000000000000     

  Step       Energy      Delta E   Gmax     Grms     Xrms     Xmax   Walltime
  ---- ---------------- -------- -------- -------- -------- -------- --------
@    1    -117.95584551 -7.9D-03  0.00757  0.00284  0.05329  0.10623     36.0
                                                                    



                                Z-matrix (autoz)
                                -------- 

 Units are Angstrom for bonds and degrees for angles

      Type          Name      I     J     K     L     M      Value     Gradient
      ----------- --------  ----- ----- ----- ----- ----- ---------- ----------
    1 Stretch                  1     2                       1.52929    0.00227
    2 Stretch                  1     3                       1.52929    0.00227
    3 Stretch                  1     4                       1.06835   -0.00757
    4 Stretch                  1     5                       1.06835   -0.00757
    5 Stretch                  2     3                       1.52929    0.00227
    6 Stretch                  2     6                       1.06835   -0.00757
    7 Stretch                  2     7                       1.06835   -0.00757
    8 Stretch                  3     8                       1.06835   -0.00757
    9 Stretch                  3     9                       1.06835   -0.00757
   10 Bend                     1     2     3                60.00000    0.00000
   11 Bend                     1     2     6               116.13789   -0.00102
   12 Bend                     1     2     7               116.13789   -0.00102
   13 Bend                     1     3     2                60.00000    0.00000
   14 Bend                     1     3     8               116.13779   -0.00102
   15 Bend                     1     3     9               116.13779   -0.00102
   16 Bend                     2     1     3                60.00000   -0.00000
   17 Bend                     2     1     4               116.13779   -0.00102
   18 Bend                     2     1     5               116.13779   -0.00102
   19 Bend                     2     3     8               116.13789   -0.00102
   20 Bend                     2     3     9               116.13789   -0.00102
   21 Bend                     3     1     4               116.13789   -0.00102
   22 Bend                     3     1     5               116.13789   -0.00102
   23 Bend                     3     2     6               116.13779   -0.00102
   24 Bend                     3     2     7               116.13779   -0.00102
   25 Bend                     4     1     5               118.84774    0.00246
   26 Bend                     6     2     7               118.84774    0.00246
   27 Bend                     8     3     9               118.84774    0.00246
   28 Torsion                  1     2     3     8        -106.45801    0.00076
   29 Torsion                  1     2     3     9         106.45801   -0.00076
   30 Torsion                  1     3     2     6        -106.45817    0.00076
   31 Torsion                  1     3     2     7         106.45817   -0.00076
   32 Torsion                  2     1     3     8         106.45817   -0.00076
   33 Torsion                  2     1     3     9        -106.45817    0.00076
   34 Torsion                  2     3     1     4         106.45801   -0.00076
   35 Torsion                  2     3     1     5        -106.45801    0.00076
   36 Torsion                  3     1     2     6         106.45801   -0.00076
   37 Torsion                  3     1     2     7        -106.45801    0.00076
   38 Torsion                  3     2     1     4        -106.45817    0.00076
   39 Torsion                  3     2     1     5         106.45817   -0.00076
   40 Torsion                  4     1     2     6          -0.00016   -0.00000
   41 Torsion                  4     1     2     7         147.08382    0.00153
   42 Torsion                  4     1     3     8        -147.08382   -0.00153
   43 Torsion                  4     1     3     9          -0.00016   -0.00000
   44 Torsion                  5     1     2     6        -147.08382   -0.00153
   45 Torsion                  5     1     2     7           0.00016    0.00000
   46 Torsion                  5     1     3     8           0.00016    0.00000
   47 Torsion                  5     1     3     9         147.08382    0.00153
   48 Torsion                  6     2     3     8         147.08382    0.00153
   49 Torsion                  6     2     3     9          -0.00016   -0.00000
   50 Torsion                  7     2     3     8           0.00016    0.00000
   51 Torsion                  7     2     3     9        -147.08382   -0.00153

  no constraints, skipping    0.0000000000000000     
  no constraints, skipping    0.0000000000000000     
  no constraints, skipping    0.0000000000000000     
  no constraints, skipping    0.0000000000000000     
  no constraints, skipping    0.0000000000000000     
  no constraints, skipping    0.0000000000000000     
  no constraints, skipping    0.0000000000000000     
  no constraints, skipping    0.0000000000000000     

                                 NWChem DFT Module
                                 -----------------


                               Molecule conformer 0




 Summary of "ao basis" -> "ao basis" (spherical)
 ------------------------------------------------------------------------------
       Tag                 Description            Shells   Functions and Types
 ---------------- ------------------------------  ------  ---------------------
 C                           6-311G                  7       13   4s3p
 H                           6-311G                  3        3   3s


      Symmetry analysis of basis
      --------------------------

        a'         13
        e'+        13
        e'-        13
        a"          6
        e"+         6
        e"-         6

  Caching 1-el integrals 
  Rotation of axis 

            General Information
            -------------------
          SCF calculation type: DFT
          Wavefunction type:  closed shell.
          No. of atoms     :     9
          No. of electrons :    24
           Alpha electrons :    12
            Beta electrons :    12
          Charge           :     0
          Spin multiplicity:     1
          Use of symmetry is: on ; symmetry adaption is: on 
          Maximum number of iterations: ***
          This is a Direct SCF calculation.
          AO basis - number of functions:    57
                     number of shells:    39
          Convergence on energy requested:  1.00D-06
          Convergence on density requested:  1.00D-05
          Convergence on gradient requested:  5.00D-04

              XC Information
              --------------
                         B3LYP Method XC Potential
                     Hartree-Fock (Exact) Exchange  0.200          
                        Slater Exchange Functional  0.800 local    
                    Becke 1988 Exchange Functional  0.720 non-local
              Lee-Yang-Parr Correlation Functional  0.810          
                  VWN I RPA Correlation Functional  0.190 local    

             Grid Information
             ----------------
          Grid used for XC integration:  fine      
          Radial quadrature: Mura-Knowles        
          Angular quadrature: Lebedev. 
          Tag              B.-S. Rad. Rad. Pts. Rad. Cut. Ang. Pts.
          ---              ---------- --------- --------- ---------
          C                   0.70       70           8.0       590
          H                   0.35       60          10.0       590
          Grid pruning is: on 
          Number of quadrature shells:   130
          Spatial weights used:  Erf1

          Convergence Information
          -----------------------
          Convergence aids based upon iterative change in 
          total energy or number of iterations. 
          Levelshifting, if invoked, occurs when the 
          HOMO/LUMO gap drops below (HL_TOL):  1.00D-02
          DIIS, if invoked, will attempt to extrapolate 
          using up to (NFOCK): 10 stored Fock matrices.

                    Damping( 0%)  Levelshifting(0.5)       DIIS
                  --------------- ------------------- ---------------
          dE  on:    start            ASAP                start   
          dE off:    2 iters        *** iters           *** iters 


      Screening Tolerance Information
      -------------------------------
          Density screening/tol_rho:  1.00D-10
          AO Gaussian exp screening on grid/accAOfunc:  14
          CD Gaussian exp screening on grid/accCDfunc:  20
          XC Gaussian exp screening on grid/accXCfunc:  20
          Schwarz screening/accCoul:  1.00D-08

          Performing ZORA calculations
          ----------------------------


      Superposition of Atomic Density Guess
      -------------------------------------

 Sum of atomic energies:        -116.00451404

 Read atomic ZORA corrections from ./C1CC1_mol_4_conformer_0.zora_sf

 Forcing recalculation of ZORA corrections
       Generating atomic ZORA corrections
       ----------------------------------

 In dft_scf:: zora:Knucl= F

 Grid_pts file          = ./C1CC1_mol_4_conformer_0.gridpts.00
 Record size in doubles =  12289        No. of grid_pts per rec  =   3070
 Max. records in memory =      2        Max. recs in file   =     13618

 Grid integrated density:      23.999997293255
 Requested integration accuracy:   0.10E-06

 Wrote atomic ZORA corrections to ./C1CC1_mol_4_conformer_0.zora_sf


 Loading old vectors from job with title :

Molecule conformer 0


      Symmetry analysis of molecular orbitals - initial
      -------------------------------------------------

  Numbering of irreducible representations: 

     1 a'          2 e'+         3 e'-         4 a"          5 e"+     
     6 e"-     

  Orbital symmetries:

     1 a'          2 e'+         3 e'+         4 a'          5 e'+     
     6 e'+         7 a"          8 a'          9 e"+        10 e"+     
    11 e'+        12 e'+        13 a'         14 a"         15 e'+     
    16 e'+        17 a'         18 e"+        19 e"+        20 e'+     
    21 e'+        22 a'      

   Time after variat. SCF:     41.6
   Time prior to 1st pass:     41.6

           Memory utilization after 1st SCF pass: 
           Heap Space remaining (MW):      131.04           131041678
          Stack Space remaining (MW):      131.06           131064900

   convergence    iter        energy       DeltaE   RMS-Dens  Diis-err    time
 ---------------- ----- ----------------- --------- --------- ---------  ------
 d= 0,ls=0.0,diis     1   -117.9572798068 -1.93D+02  6.67D-04  8.88D-04    42.9
 d= 0,ls=0.0,diis     2   -117.9573944142 -1.15D-04  2.45D-04  1.34D-04    44.2
 d= 0,ls=0.0,diis     3   -117.9574015182 -7.10D-06  9.66D-05  8.82D-05    45.3
 d= 0,ls=0.0,diis     4   -117.9574130925 -1.16D-05  2.20D-06  1.49D-08    46.4
 d= 0,ls=0.0,diis     5   -117.9574130953 -2.83D-09  2.66D-07  7.03D-11    47.7
(nogshift,skip_gshiftAOev,done_Fji)=( 1,F,F)


         Total DFT energy =     -117.957413095333
      One electron energy =     -306.045432823719
           Coulomb energy =      131.282094820229
    Exchange-Corr. energy =      -18.545430751162
 Nuclear repulsion energy =       75.351355659320

       Scaling correction =        0.026246390379

 Numeric. integr. density =       23.999998257264

     Total iterative time =      6.1s



                  Occupations of the irreducible representations
                  ----------------------------------------------

                     irrep           alpha         beta
                     --------     --------     --------
                     a'                3.0          3.0
                     e'+               6.0          6.0
                     e'-               0.0          0.0
                     a"                1.0          1.0
                     e"+               2.0          2.0
                     e"-               0.0          0.0


 center of mass
 --------------
 x =  -0.00000000 y =  -0.00000000 z =   0.00000000

 moments of inertia (a.u.)
 ------------------
          90.683787577901          -0.000000000000           0.000000000000
          -0.000000000000          90.683787577901           0.000000000000
           0.000000000000           0.000000000000         145.077594608612
 Line search: 
     step= 1.00 grad=-2.1D-03 hess= 5.1D-04 energy=   -117.957413 mode=downhill
 new step= 2.04                   predicted energy=   -117.957961
  no constraints, skipping    0.0000000000000000     
  no constraints, skipping    0.0000000000000000     
  no constraints, skipping    0.0000000000000000     
  no constraints, skipping    0.0000000000000000     
  no constraints, skipping    0.0000000000000000     
  no constraints, skipping    0.0000000000000000     
  no constraints, skipping    0.0000000000000000     
  no constraints, skipping    0.0000000000000000     

          --------
          Step   2
          --------


                         Geometry "geometry" -> "geometry"
                         ---------------------------------

 Output coordinates in angstroms (scale by  1.889725989 to convert to a.u.)

  No.       Tag          Charge          X              Y              Z
 ---- ---------------- ---------- -------------- -------------- --------------
    1 C                    6.0000    -0.75376127     0.45545071     0.00000000
    2 C                    6.0000    -0.01755125    -0.88050176     0.00000000
    3 C                    6.0000     0.77131252     0.42505105     0.00000000
    4 H                    1.0000    -1.25377684     0.75757892     0.91303492
    5 H                    1.0000    -1.25377684     0.75757892    -0.91303492
    6 H                    1.0000    -0.02919417    -1.46459205     0.91303492
    7 H                    1.0000    -0.02919417    -1.46459205    -0.91303492
    8 H                    1.0000     1.28297101     0.70701313    -0.91303492
    9 H                    1.0000     1.28297101     0.70701313     0.91303492

      Atomic Mass 
      ----------- 

      C                 12.000000
      H                  1.007825


 Effective nuclear repulsion energy (a.u.)      75.1411177139

            Nuclear Dipole moment (a.u.) 
            ----------------------------
        X                 Y               Z
 ---------------- ---------------- ----------------
    -0.0000000000     0.0000000000     0.0000000000

      Symmetry information
      --------------------

 Group name             C3h       
 Group number             22
 Group order               6
 No. of unique centers     2

      Symmetry unique atoms

     1    4


                                 NWChem DFT Module
                                 -----------------


                               Molecule conformer 0




 Summary of "ao basis" -> "ao basis" (spherical)
 ------------------------------------------------------------------------------
       Tag                 Description            Shells   Functions and Types
 ---------------- ------------------------------  ------  ---------------------
 C                           6-311G                  7       13   4s3p
 H                           6-311G                  3        3   3s


      Symmetry analysis of basis
      --------------------------

        a'         13
        e'+        13
        e'-        13
        a"          6
        e"+         6
        e"-         6

  Caching 1-el integrals 
  Rotation of axis 

            General Information
            -------------------
          SCF calculation type: DFT
          Wavefunction type:  closed shell.
          No. of atoms     :     9
          No. of electrons :    24
           Alpha electrons :    12
            Beta electrons :    12
          Charge           :     0
          Spin multiplicity:     1
          Use of symmetry is: on ; symmetry adaption is: on 
          Maximum number of iterations: ***
          This is a Direct SCF calculation.
          AO basis - number of functions:    57
                     number of shells:    39
          Convergence on energy requested:  1.00D-06
          Convergence on density requested:  1.00D-05
          Convergence on gradient requested:  5.00D-04

              XC Information
              --------------
                         B3LYP Method XC Potential
                     Hartree-Fock (Exact) Exchange  0.200          
                        Slater Exchange Functional  0.800 local    
                    Becke 1988 Exchange Functional  0.720 non-local
              Lee-Yang-Parr Correlation Functional  0.810          
                  VWN I RPA Correlation Functional  0.190 local    

             Grid Information
             ----------------
          Grid used for XC integration:  fine      
          Radial quadrature: Mura-Knowles        
          Angular quadrature: Lebedev. 
          Tag              B.-S. Rad. Rad. Pts. Rad. Cut. Ang. Pts.
          ---              ---------- --------- --------- ---------
          C                   0.70       70           8.0       590
          H                   0.35       60          10.0       590
          Grid pruning is: on 
          Number of quadrature shells:   130
          Spatial weights used:  Erf1

          Convergence Information
          -----------------------
          Convergence aids based upon iterative change in 
          total energy or number of iterations. 
          Levelshifting, if invoked, occurs when the 
          HOMO/LUMO gap drops below (HL_TOL):  1.00D-02
          DIIS, if invoked, will attempt to extrapolate 
          using up to (NFOCK): 10 stored Fock matrices.

                    Damping( 0%)  Levelshifting(0.5)       DIIS
                  --------------- ------------------- ---------------
          dE  on:    start            ASAP                start   
          dE off:    2 iters        *** iters           *** iters 


      Screening Tolerance Information
      -------------------------------
          Density screening/tol_rho:  1.00D-10
          AO Gaussian exp screening on grid/accAOfunc:  14
          CD Gaussian exp screening on grid/accCDfunc:  20
          XC Gaussian exp screening on grid/accXCfunc:  20
          Schwarz screening/accCoul:  1.00D-08

          Performing ZORA calculations
          ----------------------------


      Superposition of Atomic Density Guess
      -------------------------------------

 Sum of atomic energies:        -116.00451404

 Read atomic ZORA corrections from ./C1CC1_mol_4_conformer_0.zora_sf

 Forcing recalculation of ZORA corrections
       Generating atomic ZORA corrections
       ----------------------------------

 In dft_scf:: zora:Knucl= F

 Grid_pts file          = ./C1CC1_mol_4_conformer_0.gridpts.00
 Record size in doubles =  12289        No. of grid_pts per rec  =   3070
 Max. records in memory =      2        Max. recs in file   =     13618

 Grid integrated density:      24.000003145245
 Requested integration accuracy:   0.10E-06

 Wrote atomic ZORA corrections to ./C1CC1_mol_4_conformer_0.zora_sf


 Loading old vectors from job with title :

Molecule conformer 0


      Symmetry analysis of molecular orbitals - initial
      -------------------------------------------------

  Numbering of irreducible representations: 

     1 a'          2 e'+         3 e'-         4 a"          5 e"+     
     6 e"-     

  Orbital symmetries:

     1 a'          2 e'+         3 e'+         4 a'          5 e'+     
     6 e'+         7 a"          8 a'          9 e"+        10 e"+     
    11 e'+        12 e'+        13 a'         14 a"         15 e'+     
    16 e'+        17 a'         18 e"+        19 e"+        20 e'+     
    21 e'+        22 a'      

   Time after variat. SCF:     53.8
   Time prior to 1st pass:     53.8

           Memory utilization after 1st SCF pass: 
           Heap Space remaining (MW):      131.04           131041678
          Stack Space remaining (MW):      131.06           131064900

   convergence    iter        energy       DeltaE   RMS-Dens  Diis-err    time
[...]
(dia2,par1)(k,t,iat1,spin)=(  3,  2,  7,  1)=(    -3.36480819,    -3.36480819,     1.26600681,     1.26600681) ppm
(dia2,par1)(k,t,iat1,spin)=(  1,  3,  7,  1)=(    -0.09677835,    -0.09677835,     0.00931541,     0.00931541) ppm
(dia2,par1)(k,t,iat1,spin)=(  2,  3,  7,  1)=(    -4.78720768,    -4.78720768,     0.46602722,     0.46602722) ppm
(dia2,par1)(k,t,iat1,spin)=(  3,  3,  7,  1)=(     1.22991183,     1.22991183,    -1.55429522,    -1.55429522) ppm
 Grid integrated density:      24.000003643052
 Requested integration accuracy:   0.10E-06
dia1(k,t,iat1,ispin)=(  1,  1,  8,  1)=(    26.13087208,    26.13087208) ppm
dia1(k,t,iat1,ispin)=(  1,  2,  8,  1)=(     4.18164676,     4.18164676) ppm
dia1(k,t,iat1,ispin)=(  1,  3,  8,  1)=(   -10.14938598,   -10.14938598) ppm
dia1(k,t,iat1,ispin)=(  2,  1,  8,  1)=(     4.16534259,     4.16534259) ppm
dia1(k,t,iat1,ispin)=(  2,  2,  8,  1)=(    20.83663740,    20.83663740) ppm
dia1(k,t,iat1,ispin)=(  2,  3,  8,  1)=(    -5.58733016,    -5.58733016) ppm
dia1(k,t,iat1,ispin)=(  3,  1,  8,  1)=(    -9.80221896,    -9.80221896) ppm
dia1(k,t,iat1,ispin)=(  3,  2,  8,  1)=(    -5.40760685,    -5.40760685) ppm
dia1(k,t,iat1,ispin)=(  3,  3,  8,  1)=(    32.13716535,    32.13716535) ppm
(dia2,par1)(k,t,iat1,spin)=(  1,  1,  8,  1)=(     4.14182296,     4.14182296,    -0.06686043,    -0.06686043) ppm
(dia2,par1)(k,t,iat1,spin)=(  2,  1,  8,  1)=(    -0.96865537,    -0.96865537,    -0.21368764,    -0.21368764) ppm
(dia2,par1)(k,t,iat1,spin)=(  3,  1,  8,  1)=(     2.94183572,     2.94183572,    -1.09908866,    -1.09908866) ppm
(dia2,par1)(k,t,iat1,spin)=(  1,  2,  8,  1)=(    -0.96927577,    -0.96927577,    -0.20100151,    -0.20100151) ppm
(dia2,par1)(k,t,iat1,spin)=(  2,  2,  8,  1)=(     5.36133051,     5.36133051,     0.20783541,     0.20783541) ppm
(dia2,par1)(k,t,iat1,spin)=(  3,  2,  8,  1)=(     1.61894023,     1.61894023,    -0.61934870,    -0.61934870) ppm
(dia2,par1)(k,t,iat1,spin)=(  1,  3,  8,  1)=(     4.17626735,     4.17626735,    -0.40888410,    -0.40888410) ppm
(dia2,par1)(k,t,iat1,spin)=(  2,  3,  8,  1)=(     2.31317654,     2.31317654,    -0.22498878,    -0.22498878) ppm
(dia2,par1)(k,t,iat1,spin)=(  3,  3,  8,  1)=(     1.23481719,     1.23481719,    -1.55500145,    -1.55500145) ppm
 Grid integrated density:      24.000003643052
 Requested integration accuracy:   0.10E-06
dia1(k,t,iat1,ispin)=(  1,  1,  9,  1)=(    26.13091020,    26.13091020) ppm
dia1(k,t,iat1,ispin)=(  1,  2,  9,  1)=(     4.18175403,     4.18175403) ppm
dia1(k,t,iat1,ispin)=(  1,  3,  9,  1)=(    10.14995393,    10.14995393) ppm
dia1(k,t,iat1,ispin)=(  2,  1,  9,  1)=(     4.16544736,     4.16544736) ppm
dia1(k,t,iat1,ispin)=(  2,  2,  9,  1)=(    20.83654797,    20.83654797) ppm
dia1(k,t,iat1,ispin)=(  2,  3,  9,  1)=(     5.58764174,     5.58764174) ppm
dia1(k,t,iat1,ispin)=(  3,  1,  9,  1)=(     9.80254528,     9.80254528) ppm
dia1(k,t,iat1,ispin)=(  3,  2,  9,  1)=(     5.40778755,     5.40778755) ppm
dia1(k,t,iat1,ispin)=(  3,  3,  9,  1)=(    32.13827547,    32.13827547) ppm
(dia2,par1)(k,t,iat1,spin)=(  1,  1,  9,  1)=(     4.14206758,     4.14206758,    -0.06695351,    -0.06695351) ppm
(dia2,par1)(k,t,iat1,spin)=(  2,  1,  9,  1)=(    -0.96876453,    -0.96876453,    -0.21349545,    -0.21349545) ppm
(dia2,par1)(k,t,iat1,spin)=(  3,  1,  9,  1)=(    -2.94198801,    -2.94198801,     1.09909957,     1.09909957) ppm
(dia2,par1)(k,t,iat1,spin)=(  1,  2,  9,  1)=(    -0.96938446,    -0.96938446,    -0.20081147,    -0.20081147) ppm
(dia2,par1)(k,t,iat1,spin)=(  2,  2,  9,  1)=(     5.36170875,     5.36170875,     0.20749830,     0.20749830) ppm
(dia2,par1)(k,t,iat1,spin)=(  3,  2,  9,  1)=(    -1.61902596,    -1.61902596,     0.61934915,     0.61934915) ppm
(dia2,par1)(k,t,iat1,spin)=(  1,  3,  9,  1)=(    -4.17648503,    -4.17648503,     0.40888718,     0.40888718) ppm
(dia2,par1)(k,t,iat1,spin)=(  2,  3,  9,  1)=(    -2.31330085,    -2.31330085,     0.22499017,     0.22499017) ppm
(dia2,par1)(k,t,iat1,spin)=(  3,  3,  9,  1)=(     1.23484288,     1.23484288,    -1.55505915,    -1.55505915) ppm
 Grid integrated density:      24.000003643052
 Requested integration accuracy:   0.10E-06

 Wrote ZORA NMR data to ./C1CC1_mol_4_conformer_0.zora_nmrcs

(nogshift,skip_gshiftAOev,done_Fji)=( 1,F,T)


         Total DFT energy =     -117.960590631149
      One electron energy =     -306.334479391573
           Coulomb energy =      131.408855266788
    Exchange-Corr. energy =      -18.544626200898
 Nuclear repulsion energy =       75.453541976621

             COSMO energy =        0.056117717914

       Scaling correction =        0.026376695033

 Numeric. integr. density =       24.000001378124

     Total iterative time =     31.4s


                                   COSMO solvation results
                                   -----------------------

                 gas phase energy =      -117.958419871772
                 sol phase energy =      -117.960590631149
 (electrostatic) solvation energy =         0.002170759377 (    1.36 kcal/mol)

 center of mass
 --------------
 x =   0.00000000 y =   0.00000000 z =   0.00000000

 moments of inertia (a.u.)
 ------------------
          90.211514888451          -0.000000000000           0.000000000000
          -0.000000000000          90.211514888451           0.000000000000
           0.000000000000           0.000000000000         144.980095224647

            Scalar ZORA NMR Shielding
            -------------------------


          -----------------------------------------
          Chemical Shielding Tensors (GIAO, in ppm)
          -----------------------------------------


 Read ZORA NMR data from ./C1CC1_mol_4_conformer_0.zora_nmrcs

    0 giaofock schwarz done =      99.95%
    0 giaofock schwarz done =      99.64%
                                NWChem CPHF Module
                                ------------------



 solvent parameters
 solvname_short: cdcl3   
 solvname_long:  unknown                            
 dielec:       78.4000
 dielecinf:     1.7769

          ---------------
          -cosmo- solvent
          ---------------
 Cosmo: York-Karplus, doi: 10.1021/jp992097l
 dielectric constant -eps-     =  78.40
 screen = (eps-1)/(eps    )    =   0.98724
 surface charge correction     = lagrangian
 -lineq- algorithm             =   0
 -bem- low  level              =   2
 -bem- from -octahedral-
 gaussian surface charge width =   0.98000
 degree of switching           =   1.00000
 switching function tolerance  =   0.00010
 atomic radii = 
 --------------
    1  6.000  2.000
    2  6.000  2.000
    3  6.000  2.000
    4  1.000  1.300
    5  1.000  1.300
    6  1.000  1.300
    7  1.000  1.300
    8  1.000  1.300
    9  1.000  1.300

 solvent accessible surface
 --------------------------

 ---------- ATOMIC COORDINATES (A.U.) ------------ VDWR(ANG.) --
     1   -1.41654510    0.85593733    0.00000000     2.000
     2   -0.03299092   -1.65473271    0.00000000     2.000
     3    1.44953602    0.79879538    0.00000000     2.000
     4   -2.37005180    1.43207170    1.71191284     1.300
     5   -2.37005180    1.43207170   -1.71191284     1.300
     6   -0.05518457   -2.76856092    1.71191284     1.300
     7   -0.05518457   -2.76856092   -1.71191284     1.300
     8    2.42523637    1.33648922   -1.71191284     1.300
     9    2.42523637    1.33648922    1.71191284     1.300
 number of segments per atom =         32
 number of   points per atom =         32
 atom (   nspa,  nppa )
 ----------------------
    1 (     16,     0 )       0
    2 (     16,     0 )       0
    3 (     16,     0 )       0
    4 (     15,     0 )       0
    5 (     15,     0 )       0
    6 (     15,     0 )       0
    7 (     15,     0 )       0
    8 (     15,     0 )       0
    9 (     15,     0 )       0
 number of -cosmo- surface points =      138
 molecular surface =     98.696 angstrom**2
 molecular volume  =     57.053 angstrom**3
 G(cav/disp)       =      1.353 kcal/mol
 ...... end of -cosmo- initialization ......


  scftype          =     RHF 
  nclosed          =       12
  nopen            =        0
  variables        =      540
  # of vectors     =        3
  tolerance        = 0.10D-03
  level shift      = 0.00D+00
  max iterations   =       50
  max subspace     =       30

 SCF residual:    6.9742914533353178E-005


Iterative solution of linear equations
  No. of variables      540
  No. of equations        3
  Maximum subspace       30
        Iterations       50
       Convergence  1.0D-04
        Start time    310.5


   iter   nsub   residual    time
   ----  ------  --------  ---------
     1      3    3.40D-01     316.8
     2      6    5.21D-03     318.7
     3      9    2.16D-04     320.2
     4     12    8.89D-06     321.9

 Wrote CPHF data to ./C1CC1_mol_4_conformer_0.shieldcphf

 Calc. par tensor-> zora
      Atom:    1  H 
        Diamagnetic
     30.0284     -3.3562     -6.2688
     -3.3562     26.4904      3.7856
     -6.2688      3.7856     33.4027

        Paramagnetic
      2.0762      0.4166      0.9042
      0.4166      2.5068     -0.5564
      0.9042     -0.5564      3.2194

        Total Shielding Tensor
     32.1046     -2.9396     -5.3647
     -2.9396     28.9972      3.2292
     -5.3647      3.2292     36.6220

           isotropic =      32.5746
          anisotropy =      13.6270

          Principal Components and Axis System
                 1           2           3
               41.6593     28.8386     27.2260

      1        -0.5370      0.6668      0.5167
      2         0.3234     -0.4031      0.8561
      3         0.7792      0.6268      0.0008



      Atom:    2  H 
        Diamagnetic
     30.0285     -3.3562      6.2688
     -3.3562     26.4904     -3.7857
      6.2688     -3.7857     33.4026

        Paramagnetic
      2.0764      0.4167     -0.9041
      0.4167      2.5068      0.5564
     -0.9041      0.5564      3.2194

        Total Shielding Tensor
     32.1049     -2.9395      5.3647
     -2.9395     28.9972     -3.2292
      5.3647     -3.2292     36.6220

           isotropic =      32.5747
          anisotropy =      13.6270

          Principal Components and Axis System
                 1           2           3
               41.6594     28.8387     27.2261

      1         0.5370      0.6669      0.5167
      2        -0.3234     -0.4030      0.8562
      3         0.7792     -0.6268     -0.0007



      Atom:    3  H 
        Diamagnetic
     24.4468      0.1467     -0.1438
      0.1467     32.0210     -7.3106
     -0.1438     -7.3106     33.3486

        Paramagnetic
      2.7618     -0.0162      0.0183
     -0.0162      1.8351      1.0433
      0.0183      1.0433      3.2410

        Total Shielding Tensor
     27.2086      0.1305     -0.1255
      0.1305     33.8560     -6.2673
     -0.1255     -6.2673     36.5896

           isotropic =      32.5514
          anisotropy =      13.6323

          Principal Components and Axis System
                 1           2           3
               41.6396     28.8086     27.2061

      1        -0.0124      0.0143      0.9998
      2        -0.6272      0.7786     -0.0189
      3         0.7787      0.6274      0.0007



      Atom:    4  H 
        Diamagnetic
     24.4468      0.1468      0.1437
      0.1468     32.0210      7.3105
      0.1437      7.3105     33.3486

        Paramagnetic
      2.7619     -0.0161     -0.0182
     -0.0161      1.8351     -1.0433
     -0.0182     -1.0433      3.2411

        Total Shielding Tensor
     27.2087      0.1306      0.1255
      0.1306     33.8562      6.2672
      0.1255      6.2672     36.5896

           isotropic =      32.5515
          anisotropy =      13.6323

          Principal Components and Axis System
                 1           2           3
               41.6397     28.8087     27.2061

      1         0.0124      0.0144      0.9998
      2         0.6272      0.7786     -0.0190
      3         0.7787     -0.6274     -0.0007



      Atom:    5  H 
        Diamagnetic
     30.2727      3.2045     -6.4168
      3.2045     26.1980     -3.5314
     -6.4168     -3.5314     33.3720

        Paramagnetic
      2.0437     -0.3951      0.9295
     -0.3951      2.5454      0.5176
      0.9295      0.5176      3.2223

        Total Shielding Tensor
     32.3164      2.8094     -5.4872
      2.8094     28.7434     -3.0138
     -5.4872     -3.0138     36.5943

           isotropic =      32.5513
          anisotropy =      13.6251

          Principal Components and Axis System
                 1           2           3
               41.6347     28.8187     27.2006

      1        -0.5497      0.6828     -0.4813
      2        -0.3019      0.3748      0.8766
      3         0.7789      0.6271      0.0001



      Atom:    6  H 
        Diamagnetic
     30.2730      3.2045      6.4170
      3.2045     26.1983      3.5316
      6.4170      3.5316     33.3731

        Paramagnetic
      2.0442     -0.3951     -0.9292
     -0.3951      2.5460     -0.5175
     -0.9292     -0.5175      3.2227

        Total Shielding Tensor
     32.3172      2.8094      5.4878
      2.8094     28.7442      3.0141
      5.4878      3.0141     36.5958

           isotropic =      32.5524
          anisotropy =      13.6263

          Principal Components and Axis System
                 1           2           3
               41.6366     28.8192     27.2014

      1         0.5497      0.6828     -0.4813
      2         0.3019      0.3748      0.8766
      3         0.7789     -0.6271     -0.0001




 Task  times  cpu:       60.3s     wall:       65.7s


                                NWChem Input Module
                                -------------------


 Summary of allocated global arrays
-----------------------------------
  array 0 => double precision sf 1(57,57),  handle: -987 
  array 1 => double precision sf 1(57,57),  handle: -986 
  array 2 => double precision sf 1(57,57),  handle: -985 
  array 3 => double precision sf 1(57,57),  handle: -984 
  array 4 => double precision sf 1(57,57),  handle: -983 
  array 5 => double precision sf 1(57,57),  handle: -982 
  array 6 => double precision sf 1(57,57),  handle: -981 
  array 7 => double precision sf 1(57,57),  handle: -980 
  array 8 => double precision sf 1(57,57),  handle: -979 
  array 9 => double precision sf 1(57,57),  handle: -978 
  array 10 => double precision sf 1(57,57),  handle: -977 
  array 11 => double precision sf 1(57,57),  handle: -976 
  array 12 => double precision sf 1(57,57),  handle: -975 
  array 13 => double precision sf 1(57,57),  handle: -974 
  array 14 => double precision sf 1(57,57),  handle: -973 
  array 15 => double precision sf 1(57,57),  handle: -972 
  array 16 => double precision sf 1(57,57),  handle: -971 
  array 17 => double precision sf 1(57,57),  handle: -970 
  array 18 => double precision sf 1(57,57),  handle: -969 
  array 19 => double precision sf 1(57,57),  handle: -968 
  array 20 => double precision sf 1(57,57),  handle: -967 
  array 21 => double precision sf 1(57,57),  handle: -966 
  array 22 => double precision sf 1(57,57),  handle: -965 



                         GA Statistics for process    0
                         ------------------------------

       create   destroy   get      put      acc     scatter   gather  read&inc
calls: 4489     4328     1.09e+05 2.13e+04 3.46e+04   60        0     4397     
number of processes/call 0.00e+00 0.00e+00 0.00e+00 0.00e+00 0.00e+00
bytes total:             1.10e+08 2.22e+07 8.07e+07 2.24e+02 0.00e+00 3.52e+04
bytes remote:            9.46e+07 1.74e+07 7.30e+07 -1.12e+02 0.00e+00 0.00e+00
Max memory consumed for GA by this process: 375856 bytes

MA_summarize_allocated_blocks: starting scan ...
MA_summarize_allocated_blocks: scan completed: 0 heap blocks, 0 stack blocks
MA usage statistics:

	allocation statistics:
					      heap	     stack
					      ----	     -----
	current number of blocks	         0	         0
	maximum number of blocks	        66	        59
	current total bytes		         0	         0
	maximum total bytes		   1513488	  24871608
	maximum total K-bytes		      1514	     24872
	maximum total M-bytes		         2	        25


                                     CITATION
                                     --------
                Please cite the following reference when publishing
                           results obtained with NWChem:

          E. Apr, E. J. Bylaska, W. A. de Jong, N. Govind, K. Kowalski,
       T. P. Straatsma, M. Valiev, H. J. J. van Dam, Y. Alexeev, J. Anchell,
       V. Anisimov, F. W. Aquino, R. Atta-Fynn, J. Autschbach, N. P. Bauman,
     J. C. Becca, D. E. Bernholdt, K. Bhaskaran-Nair, S. Bogatko, P. Borowski,
        J. Boschen, J. Brabec, A. Bruner, E. Caut, Y. Chen, G. N. Chuev,
      C. J. Cramer, J. Daily, M. J. O. Deegan, T. H. Dunning Jr., M. Dupuis,
   K. G. Dyall, G. I. Fann, S. A. Fischer, A. Fonari, H. Frchtl, L. Gagliardi,
      J. Garza, N. Gawande, S. Ghosh, K. Glaesemann, A. W. Gtz, J. Hammond,
       V. Helms, E. D. Hermes, K. Hirao, S. Hirata, M. Jacquelin, L. Jensen,
   B. G. Johnson, H. Jnsson, R. A. Kendall, M. Klemm, R. Kobayashi, V. Konkov,
      S. Krishnamoorthy, M. Krishnan, Z. Lin, R. D. Lins, R. J. Littlefield,
      A. J. Logsdail, K. Lopata, W. Ma, A. V. Marenich, J. Martin del Campo,
   D. Mejia-Rodriguez, J. E. Moore, J. M. Mullin, T. Nakajima, D. R. Nascimento,
    J. A. Nichols, P. J. Nichols, J. Nieplocha, A. Otero-de-la-Roza, B. Palmer,
    A. Panyala, T. Pirojsirikul, B. Peng, R. Peverati, J. Pittner, L. Pollack,
   R. M. Richard, P. Sadayappan, G. C. Schatz, W. A. Shelton, D. W. Silverstein,
   D. M. A. Smith, T. A. Soares, D. Song, M. Swart, H. L. Taylor, G. S. Thomas,
            V. Tipparaju, D. G. Truhlar, K. Tsemekhman, T. Van Voorhis,
     . Vzquez-Mayagoitia, P. Verma, O. Villa, A. Vishnu, K. D. Vogiatzis,
        D. Wang, J. H. Weare, M. J. Williamson, T. L. Windus, K. Woliski,
        A. T. Wong, Q. Wu, C. Yang, Q. Yu, M. Zacharias, Z. Zhang, Y. Zhao,
                                and R. J. Harrison
                        "NWChem: Past, present, and future
                         J. Chem. Phys. 152, 184102 (2020)
                               doi:10.1063/5.0004997

                                      AUTHORS
                                      -------
     E. Apra, E. J. Bylaska, N. Govind, K. Kowalski, M. Valiev, W. A. de Jong,
      T. P. Straatsma, H. J. J. van Dam, D. Wang, T. L. Windus, N. P. Bauman,
       A. Panyala, J. Hammond, J. Autschbach, K. Bhaskaran-Nair, J. Brabec,
    K. Lopata, S. A. Fischer, S. Krishnamoorthy, M. Jacquelin, W. Ma, M. Klemm,
       O. Villa, Y. Chen, V. Anisimov, F. Aquino, S. Hirata, M. T. Hackler,
           Eric Hermes, L. Jensen, J. E. Moore, J. C. Becca, V. Konjkov,
            D. Mejia-Rodriguez, T. Risthaus, M. Malagoli, A. Marenich,
   A. Otero-de-la-Roza, J. Mullin, P. Nichols, R. Peverati, J. Pittner, Y. Zhao,
        P.-D. Fan, A. Fonari, M. J. Williamson, R. J. Harrison, J. R. Rehr,
      M. Dupuis, D. Silverstein, D. M. A. Smith, J. Nieplocha, V. Tipparaju,
      M. Krishnan, B. E. Van Kuiken, A. Vazquez-Mayagoitia, M. Swart, Q. Wu,
   T. Van Voorhis, A. A. Auer, M. Nooijen, L. D. Crosby, E. Brown, G. Cisneros,
     G. I. Fann, H. Fruchtl, J. Garza, K. Hirao, R. A. Kendall, J. A. Nichols,
       K. Tsemekhman, K. Wolinski, J. Anchell, D. E. Bernholdt, P. Borowski,
       T. Clark, D. Clerc, H. Dachsel, M. J. O. Deegan, K. Dyall, D. Elwood,
      E. Glendening, M. Gutowski, A. C. Hess, J. Jaffe, B. G. Johnson, J. Ju,
        R. Kobayashi, R. Kutteh, Z. Lin, R. Littlefield, X. Long, B. Meng,
      T. Nakajima, S. Niu, L. Pollack, M. Rosing, K. Glaesemann, G. Sandrone,
      M. Stave, H. Taylor, G. Thomas, J. H. van Lenthe, A. T. Wong, Z. Zhang.

 Total times  cpu:      276.8s     wall:      322.1s
