 argument  1 = C1CC1_mol_3_conformer_0.nw



============================== echo of input deck ==============================
start

title "Molecule conformer 0"

memory total 4000 mb

echo
geometry units angstroms
   C      0.8265    -0.2893     0.0144
   C     -0.6632    -0.5709    -0.0361
   C     -0.1633     0.8602     0.0217
   H      1.2991    -0.4941     0.9984
   H      1.3540    -0.4345    -0.9521
   H     -1.0370    -0.8864    -1.0332
   H     -1.0919    -0.9460     0.9173
   H     -0.2895     1.3507     1.0101
   H     -0.2346     1.4103    -0.9405
end


basis spherical
* library 6-311G
end

driver
  maxiter 500
  xyz final
end

relativistic
  zora on
  zora:cutoff_NMR 1d-8
  zora:cutoff 1d-30
end

dft
  direct
  grid fine
  xc B3LYP
  mult 1
  maxiter 1500
  noprint "final vectors analysis" multipole
end

task dft optimize

task dft freq

property
  shielding 6 4 5 6 7 8 9
end

cosmo
   solvent cdcl3
end

task dft property
================================================================================


                                         
                                         


             Northwest Computational Chemistry Package (NWChem) 7.0.2
             --------------------------------------------------------


                    Environmental Molecular Sciences Laboratory
                       Pacific Northwest National Laboratory
                                Richland, WA 99352

                              Copyright (c) 1994-2020
                       Pacific Northwest National Laboratory
                            Battelle Memorial Institute

             NWChem is an open-source computational chemistry package
                        distributed under the terms of the
                      Educational Community License (ECL) 2.0
             A copy of the license is included with this distribution
                              in the LICENSE.TXT file

                                  ACKNOWLEDGMENT
                                  --------------

            This software and its documentation were developed at the
            EMSL at Pacific Northwest National Laboratory, a multiprogram
            national laboratory, operated for the U.S. Department of Energy
            by Battelle under Contract Number DE-AC05-76RL01830. Support
            for this work was provided by the Department of Energy Office
            of Biological and Environmental Research, Office of Basic
            Energy Sciences, and the Office of Advanced Scientific Computing.


           Job information
           ---------------

    hostname        = ponder
    program         = nwchem
    date            = Fri Aug  2 16:45:11 2024

    compiled        = Sat_Apr_09_17:12:10_2022
    source          = /build/nwchem-f1f4gx/nwchem-7.0.2/build-openmpi
    nwchem branch   = 7.0.2
    nwchem revision = N/A
    ga revision     = 5.8.1
    use scalapack   = T
    input           = C1CC1_mol_3_conformer_0.nw
    prefix          = C1CC1_mol_3_conformer_0.
    data base       = ./C1CC1_mol_3_conformer_0.db
    status          = startup
    nproc           =       40
    time left       =     -1s



           Memory information
           ------------------

    heap     =  131071998 doubles =   1000.0 Mbytes
    stack    =  131071995 doubles =   1000.0 Mbytes
    global   =  262144000 doubles =   2000.0 Mbytes (distinct from heap & stack)
    total    =  524287993 doubles =   4000.0 Mbytes
    verify   = yes
    hardfail = no 


           Directory information
           ---------------------

  0 permanent = .
  0 scratch   = .




                                NWChem Input Module
                                -------------------


                               Molecule conformer 0
                               --------------------

 Scaling coordinates for geometry "geometry" by  1.889725989
 (inverse scale =  0.529177249)

 C3H symmetry detected

          ------
          auto-z
          ------
  no constraints, skipping    0.0000000000000000     
  no constraints, skipping    0.0000000000000000     


                             Geometry "geometry" -> ""
                             -------------------------

 Output coordinates in angstroms (scale by  1.889725989 to convert to a.u.)

  No.       Tag          Charge          X              Y              Z
 ---- ---------------- ---------- -------------- -------------- --------------
    1 C                    6.0000     0.87081061     0.09348228     0.00000000
    2 C                    6.0000    -0.35444728    -0.80088525     0.00000000
    3 C                    6.0000    -0.51636333     0.70740297     0.00000000
    4 H                    1.0000     1.39759706     0.15000954     0.97610789
    5 H                    1.0000     1.39759706     0.15000954    -0.97610789
    6 H                    1.0000    -0.56888646    -1.28535933    -0.97610789
    7 H                    1.0000    -0.56888646    -1.28535933     0.97610789
    8 H                    1.0000    -0.82871061     1.13534979     0.97610789
    9 H                    1.0000    -0.82871061     1.13534979    -0.97610789

      Atomic Mass 
      ----------- 

      C                 12.000000
      H                  1.007825


 Effective nuclear repulsion energy (a.u.)      75.1280504550

            Nuclear Dipole moment (a.u.) 
            ----------------------------
        X                 Y               Z
 ---------------- ---------------- ----------------
    -0.0000000000    -0.0000000000     0.0000000000

      Symmetry information
      --------------------

 Group name             C3h       
 Group number             22
 Group order               6
 No. of unique centers     2

      Symmetry unique atoms

     1    4



                                Z-matrix (autoz)
                                -------- 

 Units are Angstrom for bonds and degrees for angles

      Type          Name      I     J     K     L     M      Value
      ----------- --------  ----- ----- ----- ----- ----- ----------
    1 Stretch                  1     2                       1.51695
    2 Stretch                  1     3                       1.51695
    3 Stretch                  1     4                       1.11062
    4 Stretch                  1     5                       1.11062
    5 Stretch                  2     3                       1.51695
    6 Stretch                  2     6                       1.11062
    7 Stretch                  2     7                       1.11062
    8 Stretch                  3     8                       1.11062
    9 Stretch                  3     9                       1.11062
   10 Bend                     1     2     3                60.00000
   11 Bend                     1     2     6               114.40212
   12 Bend                     1     2     7               114.40212
   13 Bend                     1     3     2                60.00000
   14 Bend                     1     3     8               114.40079
   15 Bend                     1     3     9               114.40079
   16 Bend                     2     1     3                60.00000
   17 Bend                     2     1     4               114.40079
   18 Bend                     2     1     5               114.40079
   19 Bend                     2     3     8               114.40212
   20 Bend                     2     3     9               114.40212
   21 Bend                     3     1     4               114.40212
   22 Bend                     3     1     5               114.40212
   23 Bend                     3     2     6               114.40079
   24 Bend                     3     2     7               114.40079
   25 Bend                     4     1     5               123.01566
   26 Bend                     6     2     7               123.01566
   27 Bend                     8     3     9               123.01566
   28 Torsion                  1     2     3     8        -105.18263
   29 Torsion                  1     2     3     9         105.18263
   30 Torsion                  1     3     2     6        -105.18486
   31 Torsion                  1     3     2     7         105.18486
   32 Torsion                  2     1     3     8         105.18486
   33 Torsion                  2     1     3     9        -105.18486
   34 Torsion                  2     3     1     4        -105.18263
   35 Torsion                  2     3     1     5         105.18263
   36 Torsion                  3     1     2     6         105.18263
   37 Torsion                  3     1     2     7        -105.18263
   38 Torsion                  3     2     1     4         105.18486
   39 Torsion                  3     2     1     5        -105.18486
   40 Torsion                  4     1     2     6        -149.63251
   41 Torsion                  4     1     2     7           0.00223
   42 Torsion                  4     1     3     8           0.00223
   43 Torsion                  4     1     3     9         149.63251
   44 Torsion                  5     1     2     6          -0.00223
   45 Torsion                  5     1     2     7         149.63251
   46 Torsion                  5     1     3     8        -149.63251
   47 Torsion                  5     1     3     9          -0.00223
   48 Torsion                  6     2     3     8         149.63251
   49 Torsion                  6     2     3     9          -0.00223
   50 Torsion                  7     2     3     8           0.00223
   51 Torsion                  7     2     3     9        -149.63251


            XYZ format geometry
            -------------------
     9
 geometry
 C                     0.87081061     0.09348228     0.00000000
 C                    -0.35444728    -0.80088525     0.00000000
 C                    -0.51636333     0.70740297     0.00000000
 H                     1.39759706     0.15000954     0.97610789
 H                     1.39759706     0.15000954    -0.97610789
 H                    -0.56888646    -1.28535933    -0.97610789
 H                    -0.56888646    -1.28535933     0.97610789
 H                    -0.82871061     1.13534979     0.97610789
 H                    -0.82871061     1.13534979    -0.97610789

 ==============================================================================
                                internuclear distances
 ------------------------------------------------------------------------------
       center one      |      center two      | atomic units |  angstroms
 ------------------------------------------------------------------------------
    2 C                |   1 C                |     2.86663  |     1.51695
    3 C                |   1 C                |     2.86663  |     1.51695
    3 C                |   2 C                |     2.86663  |     1.51695
    4 H                |   1 C                |     2.09878  |     1.11062
    5 H                |   1 C                |     2.09878  |     1.11062
    6 H                |   2 C                |     2.09878  |     1.11062
    7 H                |   2 C                |     2.09878  |     1.11062
    8 H                |   3 C                |     2.09878  |     1.11062
    9 H                |   3 C                |     2.09878  |     1.11062
 ------------------------------------------------------------------------------
                         number of included internuclear distances:          9
 ==============================================================================



 ==============================================================================
                                 internuclear angles
 ------------------------------------------------------------------------------
        center 1       |       center 2       |       center 3       |  degrees
 ------------------------------------------------------------------------------
    1 C                |   2 C                |   3 C                |    60.00
    2 C                |   1 C                |   4 H                |   114.40
    2 C                |   1 C                |   5 H                |   114.40
    3 C                |   1 C                |   4 H                |   114.40
    3 C                |   1 C                |   5 H                |   114.40
    4 H                |   1 C                |   5 H                |   123.02
    1 C                |   2 C                |   3 C                |    60.00
    1 C                |   2 C                |   6 H                |   114.40
    1 C                |   2 C                |   7 H                |   114.40
    3 C                |   2 C                |   6 H                |   114.40
    3 C                |   2 C                |   7 H                |   114.40
    6 H                |   2 C                |   7 H                |   123.02
    3 C                |   2 C                |   1 C                |    60.00
    1 C                |   3 C                |   8 H                |   114.40
    1 C                |   3 C                |   9 H                |   114.40
    2 C                |   3 C                |   8 H                |   114.40
    2 C                |   3 C                |   9 H                |   114.40
    8 H                |   3 C                |   9 H                |   123.02
 ------------------------------------------------------------------------------
                            number of included internuclear angles:         18
 ==============================================================================





 Summary of "ao basis" -> "" (spherical)
 ------------------------------------------------------------------------------
       Tag                 Description            Shells   Functions and Types
 ---------------- ------------------------------  ------  ---------------------
 *                           6-311G                   on all atoms 




                           NWChem Geometry Optimization
                           ----------------------------




                               Molecule conformer 0


  no constraints, skipping    0.0000000000000000     
 maximum gradient threshold         (gmax) =   0.000450
 rms gradient threshold             (grms) =   0.000300
 maximum cartesian step threshold   (xmax) =   0.001800
 rms cartesian step threshold       (xrms) =   0.001200
 fixed trust radius                (trust) =   0.300000
 maximum step size to saddle      (sadstp) =   0.100000
 energy precision                  (eprec) =   5.0D-06
 maximum number of steps          (nptopt) =  500
 initial hessian option           (inhess) =    0
 line search option               (linopt) =    1
 hessian update option            (modupd) =    1
 saddle point option              (modsad) =    0
 initial eigen-mode to follow     (moddir) =    0
 initial variable to follow       (vardir) =    0
 follow first negative mode     (firstneg) =    T
 apply conjugacy                    (opcg) =    F
 source of zmatrix                         =   autoz   


          -------------------
          Energy Minimization
          -------------------


 Names of Z-matrix variables 
    1              2              3              4              5         
    6              7              8              9             10         
   11             12             13             14             15         
   16             17             18             19             20         
   21             22             23             24             25         
   26             27             28             29             30         
   31             32             33             34             35         
   36             37             38             39             40         
   41             42             43             44             45         
   46             47             48             49             50         
   51         

 Variables with the same non-blank name are constrained to be equal


 Using diagonal initial Hessian 
 Scaling for Hessian diagonals: bonds = 1.00  angles = 0.25  torsions = 0.10

          --------
          Step   0
          --------


                         Geometry "geometry" -> "geometry"
                         ---------------------------------

 Output coordinates in angstroms (scale by  1.889725989 to convert to a.u.)

  No.       Tag          Charge          X              Y              Z
 ---- ---------------- ---------- -------------- -------------- --------------
    1 C                    6.0000     0.87081061     0.09348228     0.00000000
    2 C                    6.0000    -0.35444728    -0.80088525     0.00000000
    3 C                    6.0000    -0.51636333     0.70740297     0.00000000
    4 H                    1.0000     1.39759706     0.15000954     0.97610789
    5 H                    1.0000     1.39759706     0.15000954    -0.97610789
    6 H                    1.0000    -0.56888646    -1.28535933    -0.97610789
    7 H                    1.0000    -0.56888646    -1.28535933     0.97610789
    8 H                    1.0000    -0.82871061     1.13534979     0.97610789
    9 H                    1.0000    -0.82871061     1.13534979    -0.97610789

      Atomic Mass 
      ----------- 

      C                 12.000000
      H                  1.007825


 Effective nuclear repulsion energy (a.u.)      75.1280504550

            Nuclear Dipole moment (a.u.) 
            ----------------------------
        X                 Y               Z
 ---------------- ---------------- ----------------
    -0.0000000000    -0.0000000000     0.0000000000

      Symmetry information
      --------------------

 Group name             C3h       
 Group number             22
 Group order               6
 No. of unique centers     2

      Symmetry unique atoms

     1    4


                                 NWChem DFT Module
                                 -----------------


                               Molecule conformer 0


                      Basis "ao basis" -> "ao basis" (spherical)
                      -----
  C (Carbon)
  ----------
            Exponent  Coefficients 
       -------------- ---------------------------------------------------------
  1 S  4.56324000E+03  0.001967
  1 S  6.82024000E+02  0.015231
  1 S  1.54973000E+02  0.076127
  1 S  4.44553000E+01  0.260801
  1 S  1.30290000E+01  0.616462
  1 S  1.82773000E+00  0.221006

  2 S  2.09642000E+01  0.114660
  2 S  4.80331000E+00  0.919999
  2 S  1.45933000E+00 -0.003031

  3 P  2.09642000E+01  0.040249
  3 P  4.80331000E+00  0.237594
  3 P  1.45933000E+00  0.815854

  4 S  4.83456000E-01  1.000000

  5 P  4.83456000E-01  1.000000

  6 S  1.45585000E-01  1.000000

  7 P  1.45585000E-01  1.000000

  H (Hydrogen)
  ------------
            Exponent  Coefficients 
       -------------- ---------------------------------------------------------
  1 S  3.38650000E+01  0.025494
  1 S  5.09479000E+00  0.190373
  1 S  1.15879000E+00  0.852161

  2 S  3.25840000E-01  1.000000

  3 S  1.02741000E-01  1.000000



 Summary of "ao basis" -> "ao basis" (spherical)
 ------------------------------------------------------------------------------
       Tag                 Description            Shells   Functions and Types
 ---------------- ------------------------------  ------  ---------------------
 C                           6-311G                  7       13   4s3p
 H                           6-311G                  3        3   3s




 Summary of "ao basis" -> "ao basis" (spherical)
 ------------------------------------------------------------------------------
       Tag                 Description            Shells   Functions and Types
 ---------------- ------------------------------  ------  ---------------------
 C                           6-311G                  7       13   4s3p
 H                           6-311G                  3        3   3s


      Symmetry analysis of basis
      --------------------------

        a'         13
        e'+        13
        e'-        13
        a"          6
        e"+         6
        e"-         6

  Caching 1-el integrals 
  Rotation of axis 

            General Information
            -------------------
          SCF calculation type: DFT
          Wavefunction type:  closed shell.
          No. of atoms     :     9
          No. of electrons :    24
           Alpha electrons :    12
            Beta electrons :    12
          Charge           :     0
          Spin multiplicity:     1
          Use of symmetry is: on ; symmetry adaption is: on 
          Maximum number of iterations: ***
          This is a Direct SCF calculation.
          AO basis - number of functions:    57
                     number of shells:    39
          Convergence on energy requested:  1.00D-06
          Convergence on density requested:  1.00D-05
          Convergence on gradient requested:  5.00D-04

              XC Information
              --------------
                         B3LYP Method XC Potential
                     Hartree-Fock (Exact) Exchange  0.200          
                        Slater Exchange Functional  0.800 local    
                    Becke 1988 Exchange Functional  0.720 non-local
              Lee-Yang-Parr Correlation Functional  0.810          
                  VWN I RPA Correlation Functional  0.190 local    

             Grid Information
             ----------------
          Grid used for XC integration:  fine      
          Radial quadrature: Mura-Knowles        
          Angular quadrature: Lebedev. 
          Tag              B.-S. Rad. Rad. Pts. Rad. Cut. Ang. Pts.
          ---              ---------- --------- --------- ---------
          C                   0.70       70           8.0       590
          H                   0.35       60          10.0       590
          Grid pruning is: on 
          Number of quadrature shells:   130
          Spatial weights used:  Erf1

          Convergence Information
          -----------------------
          Convergence aids based upon iterative change in 
          total energy or number of iterations. 
          Levelshifting, if invoked, occurs when the 
          HOMO/LUMO gap drops below (HL_TOL):  1.00D-02
          DIIS, if invoked, will attempt to extrapolate 
          using up to (NFOCK): 10 stored Fock matrices.

                    Damping( 0%)  Levelshifting(0.5)       DIIS
                  --------------- ------------------- ---------------
          dE  on:    start            ASAP                start   
          dE off:    2 iters        *** iters           *** iters 


      Screening Tolerance Information
      -------------------------------
          Density screening/tol_rho:  1.00D-10
          AO Gaussian exp screening on grid/accAOfunc:  14
          CD Gaussian exp screening on grid/accCDfunc:  20
          XC Gaussian exp screening on grid/accXCfunc:  20
          Schwarz screening/accCoul:  1.00D-08

          Performing ZORA calculations
          ----------------------------


      Superposition of Atomic Density Guess
      -------------------------------------

 Sum of atomic energies:        -116.00451404

 Read atomic ZORA corrections from ./C1CC1_mol_3_conformer_0.zora_sf

 dft_zora_read: failed to open./C1CC1_mol_3_conformer_0.zora_sf
 Forcing recalculation of ZORA corrections
       Generating atomic ZORA corrections
       ----------------------------------

 In dft_scf:: zora:Knucl= F

 Grid_pts file          = ./C1CC1_mol_3_conformer_0.gridpts.00
 Record size in doubles =  12289        No. of grid_pts per rec  =   3070
 Max. records in memory =      2        Max. recs in file   =     13628

 Grid integrated density:      23.999990592847
 Requested integration accuracy:   0.10E-06

 Wrote atomic ZORA corrections to ./C1CC1_mol_3_conformer_0.zora_sf


      Superposition of Atomic Density Guess
      -------------------------------------

 Sum of atomic energies:        -116.00451404

      Non-variational initial energy
      ------------------------------

 Total energy =    -118.136879
 1-e energy   =    -302.452869
 2-e energy   =     109.187939
 HOMO         =      -0.346980
 LUMO         =       0.077797


      Symmetry analysis of molecular orbitals - initial
      -------------------------------------------------

  Numbering of irreducible representations: 

     1 a'          2 e'+         3 e'-         4 a"          5 e"+     
     6 e"-     

  Orbital symmetries:

     1 a'          2 e'+         3 e'+         4 a'          5 e'+     
     6 e'+         7 a"          8 a'          9 e"+        10 e"+     
    11 e'+        12 e'+        13 a'         14 a"         15 e'+     
    16 e'+        17 a'         18 e"+        19 e"+        20 e'+     
    21 e'+        22 a'      

   Time after variat. SCF:      4.0
   Time prior to 1st pass:      4.0
 Grid integrated density:      23.999995589817
 Requested integration accuracy:   0.10E-06

           Memory utilization after 1st SCF pass: 
           Heap Space remaining (MW):      131.04           131041678
          Stack Space remaining (MW):      131.06           131064900

   convergence    iter        energy       DeltaE   RMS-Dens  Diis-err    time
 ---------------- ----- ----------------- --------- --------- ---------  ------
 d= 0,ls=0.0,diis     1   -117.9144596036 -1.93D+02  6.25D-03  4.05D-01     5.4
 Grid integrated density:      23.999996254063
 Requested integration accuracy:   0.10E-06
 d= 0,ls=0.0,diis     2   -117.9476958449 -3.32D-02  1.02D-03  1.72D-03     6.1
 Grid integrated density:      23.999996262702
 Requested integration accuracy:   0.10E-06
 d= 0,ls=0.0,diis     3   -117.9478925007 -1.97D-04  2.23D-04  2.03D-04     7.2
 Grid integrated density:      23.999996260218
 Requested integration accuracy:   0.10E-06
 d= 0,ls=0.0,diis     4   -117.9479035254 -1.10D-05  1.22D-04  1.07D-04     8.0
 Grid integrated density:      23.999996264732
 Requested integration accuracy:   0.10E-06
 d= 0,ls=0.0,diis     5   -117.9479178043 -1.43D-05  6.39D-06  6.33D-08     9.1
 Grid integrated density:      23.999996264337
 Requested integration accuracy:   0.10E-06
 d= 0,ls=0.0,diis     6   -117.9479178136 -9.26D-09  1.09D-06  7.72D-10    10.3
(nogshift,skip_gshiftAOev,done_Fji)=( 1,F,F)


         Total DFT energy =     -117.947917813603
      One electron energy =     -305.643614115095
           Coulomb energy =      131.052064561737
    Exchange-Corr. energy =      -18.484418715280
 Nuclear repulsion energy =       75.128050455035

       Scaling correction =        0.026253355005

 Numeric. integr. density =       23.999996264337

     Total iterative time =      6.3s



                  Occupations of the irreducible representations
                  ----------------------------------------------

                     irrep           alpha         beta
                     --------     --------     --------
                     a'                3.0          3.0
                     e'+               6.0          6.0
                     e'-               0.0          0.0
                     a"                1.0          1.0
                     e"+               2.0          2.0
                     e"-               0.0          0.0


 center of mass
 --------------
 x =   0.00000000 y =  -0.00000000 z =   0.00000000

 moments of inertia (a.u.)
 ------------------
          91.212398791136          -0.000000000000          -0.000000000000
          -0.000000000000          91.212398791136           0.000000000000
          -0.000000000000           0.000000000000         141.275759129442

            General Information
            -------------------
          SCF calculation type: DFT
          Wavefunction type:  closed shell.
          No. of atoms     :     9
          No. of electrons :    24
           Alpha electrons :    12
            Beta electrons :    12
          Charge           :     0
          Spin multiplicity:     1
          Use of symmetry is: on ; symmetry adaption is: on 
          Maximum number of iterations: ***
          This is a Direct SCF calculation.
          AO basis - number of functions:    57
                     number of shells:    39
          Convergence on energy requested:  1.00D-06
          Convergence on density requested:  1.00D-05
          Convergence on gradient requested:  5.00D-04

              XC Information
              --------------
                         B3LYP Method XC Potential
                     Hartree-Fock (Exact) Exchange  0.200          
                        Slater Exchange Functional  0.800 local    
                    Becke 1988 Exchange Functional  0.720 non-local
              Lee-Yang-Parr Correlation Functional  0.810          
                  VWN I RPA Correlation Functional  0.190 local    

             Grid Information
             ----------------
          Grid used for XC integration:  fine      
          Radial quadrature: Mura-Knowles        
          Angular quadrature: Lebedev. 
          Tag              B.-S. Rad. Rad. Pts. Rad. Cut. Ang. Pts.
          ---              ---------- --------- --------- ---------
          C                   0.70       70           8.0       590
          H                   0.35       60          10.0       590
          Grid pruning is: on 
          Number of quadrature shells:   130
          Spatial weights used:  Erf1

          Convergence Information
          -----------------------
          Convergence aids based upon iterative change in 
          total energy or number of iterations. 
          Levelshifting, if invoked, occurs when the 
          HOMO/LUMO gap drops below (HL_TOL):  1.00D-02
          DIIS, if invoked, will attempt to extrapolate 
          using up to (NFOCK): 10 stored Fock matrices.

                    Damping( 0%)  Levelshifting(0.5)       DIIS
                  --------------- ------------------- ---------------
          dE  on:    start            ASAP                start   
          dE off:    2 iters        *** iters           *** iters 


      Screening Tolerance Information
      -------------------------------
          Density screening/tol_rho:  1.00D-10
          AO Gaussian exp screening on grid/accAOfunc:  14
          CD Gaussian exp screening on grid/accCDfunc:  20
          XC Gaussian exp screening on grid/accXCfunc:  20
          Schwarz screening/accCoul:  1.00D-08



                            NWChem DFT Gradient Module
                            --------------------------


                               Molecule conformer 0



  charge          =   0.00
  wavefunction    = closed shell

  Rotation of axis 
  Using symmetry


                         DFT ENERGY GRADIENTS

    atom               coordinates                        gradient
                 x          y          z           x          y          z
   1 C       1.645593   0.176656   0.000000   -0.007031  -0.000750   0.000000
   2 C      -0.669808  -1.513454   0.000000    0.002866   0.006464   0.000000
   3 C      -0.975785   1.336798   0.000000    0.004165  -0.005714   0.000000
   4 H       2.641075   0.283477   1.844576   -0.002164  -0.000237   0.023883
   5 H       2.641075   0.283477  -1.844576   -0.002164  -0.000237  -0.023883
   6 H      -1.075040  -2.428977  -1.844576    0.000877   0.001993  -0.023883
   7 H      -1.075040  -2.428977   1.844576    0.000877   0.001993   0.023883
   8 H      -1.566036   2.145500   1.844576    0.001287  -0.001756   0.023883
   9 H      -1.566036   2.145500  -1.844576    0.001287  -0.001756  -0.023883

                 ----------------------------------------
                 |  Time  |  1-e(secs)   |  2-e(secs)   |
                 ----------------------------------------
                 |  CPU   |       0.00   |       0.01   |
                 ----------------------------------------
                 |  WALL  |       0.00   |       0.02   |
                 ----------------------------------------
  no constraints, skipping    0.0000000000000000     

@ Step       Energy      Delta E   Gmax     Grms     Xrms     Xmax   Walltime
@ ---- ---------------- -------- -------- -------- -------- -------- --------
@    0    -117.94791781  0.0D+00  0.01995  0.00735  0.00000  0.00000     11.2
                                                                    



                                Z-matrix (autoz)
                                -------- 

 Units are Angstrom for bonds and degrees for angles

      Type          Name      I     J     K     L     M      Value     Gradient
      ----------- --------  ----- ----- ----- ----- ----- ---------- ----------
    1 Stretch                  1     2                       1.51695   -0.00660
    2 Stretch                  1     3                       1.51695   -0.00660
    3 Stretch                  1     4                       1.11062    0.01995
    4 Stretch                  1     5                       1.11062    0.01995
    5 Stretch                  2     3                       1.51695   -0.00660
    6 Stretch                  2     6                       1.11062    0.01995
    7 Stretch                  2     7                       1.11062    0.01995
    8 Stretch                  3     8                       1.11062    0.01995
    9 Stretch                  3     9                       1.11062    0.01995
   10 Bend                     1     2     3                60.00000    0.00000
   11 Bend                     1     2     6               114.40212   -0.00221
   12 Bend                     1     2     7               114.40212   -0.00221
   13 Bend                     1     3     2                60.00000   -0.00000
   14 Bend                     1     3     8               114.40079   -0.00221
   15 Bend                     1     3     9               114.40079   -0.00221
   16 Bend                     2     1     3                60.00000    0.00000
   17 Bend                     2     1     4               114.40079   -0.00221
   18 Bend                     2     1     5               114.40079   -0.00221
   19 Bend                     2     3     8               114.40212   -0.00221
   20 Bend                     2     3     9               114.40212   -0.00221
   21 Bend                     3     1     4               114.40212   -0.00221
   22 Bend                     3     1     5               114.40212   -0.00221
   23 Bend                     3     2     6               114.40079   -0.00221
   24 Bend                     3     2     7               114.40079   -0.00221
   25 Bend                     4     1     5               123.01566    0.00530
   26 Bend                     6     2     7               123.01566    0.00530
   27 Bend                     8     3     9               123.01566    0.00530
   28 Torsion                  1     2     3     8        -105.18263    0.00160
   29 Torsion                  1     2     3     9         105.18263   -0.00160
   30 Torsion                  1     3     2     6        -105.18486    0.00160
   31 Torsion                  1     3     2     7         105.18486   -0.00160
   32 Torsion                  2     1     3     8         105.18486   -0.00160
   33 Torsion                  2     1     3     9        -105.18486    0.00160
   34 Torsion                  2     3     1     4        -105.18263    0.00160
   35 Torsion                  2     3     1     5         105.18263   -0.00160
   36 Torsion                  3     1     2     6         105.18263   -0.00160
   37 Torsion                  3     1     2     7        -105.18263    0.00160
   38 Torsion                  3     2     1     4         105.18486   -0.00160
   39 Torsion                  3     2     1     5        -105.18486    0.00160
   40 Torsion                  4     1     2     6        -149.63251   -0.00319
   41 Torsion                  4     1     2     7           0.00223    0.00000
   42 Torsion                  4     1     3     8           0.00223    0.00000
   43 Torsion                  4     1     3     9         149.63251    0.00319
   44 Torsion                  5     1     2     6          -0.00223   -0.00000
   45 Torsion                  5     1     2     7         149.63251    0.00319
   46 Torsion                  5     1     3     8        -149.63251   -0.00319
   47 Torsion                  5     1     3     9          -0.00223   -0.00000
   48 Torsion                  6     2     3     8         149.63251    0.00319
   49 Torsion                  6     2     3     9          -0.00223   -0.00000
   50 Torsion                  7     2     3     8           0.00223    0.00000
   51 Torsion                  7     2     3     9        -149.63251   -0.00319

 Restricting large step in mode   11 eval= 4.4D-02 step=-3.5D-01 new=-3.0D-01
  no constraints, skipping    0.0000000000000000     
  no constraints, skipping    0.0000000000000000     
  no constraints, skipping    0.0000000000000000     
  no constraints, skipping    0.0000000000000000     
  no constraints, skipping    0.0000000000000000     
  no constraints, skipping    0.0000000000000000     
  no constraints, skipping    0.0000000000000000     
  no constraints, skipping    0.0000000000000000     

                                 NWChem DFT Module
                                 -----------------


                               Molecule conformer 0




 Summary of "ao basis" -> "ao basis" (spherical)
 ------------------------------------------------------------------------------
       Tag                 Description            Shells   Functions and Types
 ---------------- ------------------------------  ------  ---------------------
 C                           6-311G                  7       13   4s3p
 H                           6-311G                  3        3   3s


      Symmetry analysis of basis
      --------------------------

        a'         13
        e'+        13
        e'-        13
        a"          6
        e"+         6
        e"-         6

  Caching 1-el integrals 
  Rotation of axis 

            General Information
            -------------------
          SCF calculation type: DFT
          Wavefunction type:  closed shell.
          No. of atoms     :     9
          No. of electrons :    24
           Alpha electrons :    12
            Beta electrons :    12
          Charge           :     0
          Spin multiplicity:     1
          Use of symmetry is: on ; symmetry adaption is: on 
          Maximum number of iterations: ***
          This is a Direct SCF calculation.
          AO basis - number of functions:    57
                     number of shells:    39
          Convergence on energy requested:  1.00D-06
          Convergence on density requested:  1.00D-05
          Convergence on gradient requested:  5.00D-04

              XC Information
              --------------
                         B3LYP Method XC Potential
                     Hartree-Fock (Exact) Exchange  0.200          
                        Slater Exchange Functional  0.800 local    
                    Becke 1988 Exchange Functional  0.720 non-local
              Lee-Yang-Parr Correlation Functional  0.810          
                  VWN I RPA Correlation Functional  0.190 local    

             Grid Information
             ----------------
          Grid used for XC integration:  fine      
          Radial quadrature: Mura-Knowles        
          Angular quadrature: Lebedev. 
          Tag              B.-S. Rad. Rad. Pts. Rad. Cut. Ang. Pts.
          ---              ---------- --------- --------- ---------
          C                   0.70       70           8.0       590
          H                   0.35       60          10.0       590
          Grid pruning is: on 
          Number of quadrature shells:   130
          Spatial weights used:  Erf1

          Convergence Information
          -----------------------
          Convergence aids based upon iterative change in 
          total energy or number of iterations. 
          Levelshifting, if invoked, occurs when the 
          HOMO/LUMO gap drops below (HL_TOL):  1.00D-02
          DIIS, if invoked, will attempt to extrapolate 
          using up to (NFOCK): 10 stored Fock matrices.

                    Damping( 0%)  Levelshifting(0.5)       DIIS
                  --------------- ------------------- ---------------
          dE  on:    start            ASAP                start   
          dE off:    2 iters        *** iters           *** iters 


      Screening Tolerance Information
      -------------------------------
          Density screening/tol_rho:  1.00D-10
          AO Gaussian exp screening on grid/accAOfunc:  14
          CD Gaussian exp screening on grid/accCDfunc:  20
          XC Gaussian exp screening on grid/accXCfunc:  20
          Schwarz screening/accCoul:  1.00D-08

          Performing ZORA calculations
          ----------------------------


      Superposition of Atomic Density Guess
      -------------------------------------

 Sum of atomic energies:        -116.00451404

 Read atomic ZORA corrections from ./C1CC1_mol_3_conformer_0.zora_sf

 Forcing recalculation of ZORA corrections
       Generating atomic ZORA corrections
       ----------------------------------

 In dft_scf:: zora:Knucl= F

 Grid_pts file          = ./C1CC1_mol_3_conformer_0.gridpts.00
 Record size in doubles =  12289        No. of grid_pts per rec  =   3070
 Max. records in memory =      2        Max. recs in file   =     13628

 Grid integrated density:      23.999989717078
 Requested integration accuracy:   0.10E-06

 Wrote atomic ZORA corrections to ./C1CC1_mol_3_conformer_0.zora_sf


 Loading old vectors from job with title :

Molecule conformer 0


      Symmetry analysis of molecular orbitals - initial
      -------------------------------------------------

  Numbering of irreducible representations: 

     1 a'          2 e'+         3 e'-         4 a"          5 e"+     
     6 e"-     

  Orbital symmetries:

     1 a'          2 e'+         3 e'+         4 a'          5 e'+     
     6 e'+         7 a"          8 a'          9 e"+        10 e"+     
    11 e'+        12 e'+        13 a'         14 a"         15 e'+     
    16 e'+        17 a'         18 e"+        19 e"+        20 e'+     
    21 e'+        22 a'      

   Time after variat. SCF:     16.3
   Time prior to 1st pass:     16.3
 Grid integrated density:      23.999995789845
 Requested integration accuracy:   0.10E-06

           Memory utilization after 1st SCF pass: 
           Heap Space remaining (MW):      131.04           131041678
          Stack Space remaining (MW):      131.06           131064900

   convergence    iter        energy       DeltaE   RMS-Dens  Diis-err    time
 ---------------- ----- ----------------- --------- --------- ---------  ------
 d= 0,ls=0.0,diis     1   -117.9542564913 -1.93D+02  2.09D-03  9.49D-03    17.6
 Grid integrated density:      23.999995880882
 Requested integration accuracy:   0.10E-06
 d= 0,ls=0.0,diis     2   -117.9552627185 -1.01D-03  6.67D-04  1.73D-03    18.7
 Grid integrated density:      23.999995879599
 Requested integration accuracy:   0.10E-06
 d= 0,ls=0.0,diis     3   -117.9553920330 -1.29D-04  3.17D-04  7.57D-04    20.0
 Grid integrated density:      23.999995870643
 Requested integration accuracy:   0.10E-06
 d= 0,ls=0.0,diis     4   -117.9554905055 -9.85D-05  3.53D-05  1.30D-06    21.1
 Grid integrated density:      23.999995872691
 Requested integration accuracy:   0.10E-06
 d= 0,ls=0.0,diis     5   -117.9554906921 -1.87D-07  2.24D-06  1.21D-08    22.2
(nogshift,skip_gshiftAOev,done_Fji)=( 1,F,F)


         Total DFT energy =     -117.955490692060
      One electron energy =     -306.234016377525
           Coulomb energy =      131.376297235393
    Exchange-Corr. energy =      -18.541936335531
 Nuclear repulsion energy =       75.444164785604

       Scaling correction =        0.026245444197

 Numeric. integr. density =       23.999995872691

     Total iterative time =      5.9s



                  Occupations of the irreducible representations
                  ----------------------------------------------

                     irrep           alpha         beta
                     --------     --------     --------
                     a'                3.0          3.0
                     e'+               6.0          6.0
                     e'-               0.0          0.0
                     a"                1.0          1.0
                     e"+               2.0          2.0
                     e"-               0.0          0.0


 center of mass
 --------------
 x =   0.00000000 y =  -0.00000000 z =   0.00000000

 moments of inertia (a.u.)
 ------------------
          90.558505328441          -0.000000000000           0.000000000000
          -0.000000000000          90.558505328441           0.000000000000
           0.000000000000           0.000000000000         143.457998945274
 Line search: 
     step= 1.00 grad=-1.2D-02 hess= 4.5D-03 energy=   -117.955491 mode=downhill
 new step= 1.33                   predicted energy=   -117.955993
  no constraints, skipping    0.0000000000000000     
  no constraints, skipping    0.0000000000000000     
  no constraints, skipping    0.0000000000000000     
  no constraints, skipping    0.0000000000000000     
  no constraints, skipping    0.0000000000000000     
  no constraints, skipping    0.0000000000000000     
  no constraints, skipping    0.0000000000000000     
  no constraints, skipping    0.0000000000000000     

          --------
          Step   1
          --------


                         Geometry "geometry" -> "geometry"
                         ---------------------------------

 Output coordinates in angstroms (scale by  1.889725989 to convert to a.u.)

  No.       Tag          Charge          X              Y              Z
 ---- ---------------- ---------- -------------- -------------- --------------
    1 C                    6.0000     0.87789960     0.09423855     0.00000000
    2 C                    6.0000    -0.35733683    -0.80740263     0.00000000
    3 C                    6.0000    -0.52056278     0.71316408     0.00000000
    4 H                    1.0000     1.41825620     0.15222844     0.91980013
    5 H                    1.0000     1.41825620     0.15222844    -0.91980013
    6 H                    1.0000    -0.57729440    -1.30436012    -0.91980013
    7 H                    1.0000    -0.57729440    -1.30436012     0.91980013
    8 H                    1.0000    -0.84096180     1.15213168     0.91980013
    9 H                    1.0000    -0.84096180     1.15213168    -0.91980013

      Atomic Mass 
      ----------- 

      C                 12.000000
      H                  1.007825


 Effective nuclear repulsion energy (a.u.)      75.5588565540

            Nuclear Dipole moment (a.u.) 
            ----------------------------
        X                 Y               Z
 ---------------- ---------------- ----------------
    -0.0000000000     0.0000000000     0.0000000000

      Symmetry information
      --------------------

 Group name             C3h       
 Group number             22
 Group order               6
 No. of unique centers     2

      Symmetry unique atoms

     1    4


                                 NWChem DFT Module
                                 -----------------


                               Molecule conformer 0




 Summary of "ao basis" -> "ao basis" (spherical)
 ------------------------------------------------------------------------------
       Tag                 Description            Shells   Functions and Types
 ---------------- ------------------------------  ------  ---------------------
 C                           6-311G                  7       13   4s3p
 H                           6-311G                  3        3   3s


      Symmetry analysis of basis
      --------------------------

        a'         13
        e'+        13
        e'-        13
        a"          6
        e"+         6
        e"-         6

  Caching 1-el integrals 
  Rotation of axis 

            General Information
            -------------------
          SCF calculation type: DFT
          Wavefunction type:  closed shell.
          No. of atoms     :     9
          No. of electrons :    24
           Alpha electrons :    12
            Beta electrons :    12
          Charge           :     0
          Spin multiplicity:     1
          Use of symmetry is: on ; symmetry adaption is: on 
          Maximum number of iterations: ***
          This is a Direct SCF calculation.
          AO basis - number of functions:    57
                     number of shells:    39
          Convergence on energy requested:  1.00D-06
          Convergence on density requested:  1.00D-05
          Convergence on gradient requested:  5.00D-04

              XC Information
              --------------
                         B3LYP Method XC Potential
                     Hartree-Fock (Exact) Exchange  0.200          
                        Slater Exchange Functional  0.800 local    
                    Becke 1988 Exchange Functional  0.720 non-local
              Lee-Yang-Parr Correlation Functional  0.810          
                  VWN I RPA Correlation Functional  0.190 local    

             Grid Information
             ----------------
          Grid used for XC integration:  fine      
          Radial quadrature: Mura-Knowles        
          Angular quadrature: Lebedev. 
          Tag              B.-S. Rad. Rad. Pts. Rad. Cut. Ang. Pts.
          ---              ---------- --------- --------- ---------
          C                   0.70       70           8.0       590
          H                   0.35       60          10.0       590
          Grid pruning is: on 
          Number of quadrature shells:   130
          Spatial weights used:  Erf1

          Convergence Information
          -----------------------
          Convergence aids based upon iterative change in 
          total energy or number of iterations. 
          Levelshifting, if invoked, occurs when the 
          HOMO/LUMO gap drops below (HL_TOL):  1.00D-02
          DIIS, if invoked, will attempt to extrapolate 
          using up to (NFOCK): 10 stored Fock matrices.

                    Damping( 0%)  Levelshifting(0.5)       DIIS
                  --------------- ------------------- ---------------
          dE  on:    start            ASAP                start   
          dE off:    2 iters        *** iters           *** iters 


      Screening Tolerance Information
      -------------------------------
          Density screening/tol_rho:  1.00D-10
          AO Gaussian exp screening on grid/accAOfunc:  14
          CD Gaussian exp screening on grid/accCDfunc:  20
          XC Gaussian exp screening on grid/accXCfunc:  20
          Schwarz screening/accCoul:  1.00D-08

          Performing ZORA calculations
          ----------------------------


      Superposition of Atomic Density Guess
      -------------------------------------

 Sum of atomic energies:        -116.00451404

 Read atomic ZORA corrections from ./C1CC1_mol_3_conformer_0.zora_sf

 Forcing recalculation of ZORA corrections
       Generating atomic ZORA corrections
       ----------------------------------

 In dft_scf:: zora:Knucl= F

 Grid_pts file          = ./C1CC1_mol_3_conformer_0.gridpts.00
 Record size in doubles =  12289        No. of grid_pts per rec  =   3070
 Max. records in memory =      2        Max. recs in file   =     13618

 Grid integrated density:      23.999989956930
 Requested integration accuracy:   0.10E-06

 Wrote atomic ZORA corrections to ./C1CC1_mol_3_conformer_0.zora_sf


 Loading old vectors from job with title :

Molecule conformer 0


      Symmetry analysis of molecular orbitals - initial
      -------------------------------------------------

  Numbering of irreducible representations: 

     1 a'          2 e'+         3 e'-         4 a"          5 e"+     
     6 e"-     

  Orbital symmetries:

     1 a'          2 e'+         3 e'+         4 a'          5 e'+     
     6 e'+         7 a"          8 a'          9 e"+        10 e"+     
    11 e'+        12 e'+        13 a'         14 a"         15 e'+     
    16 e'+        17 a'         18 e"+        19 e"+        20 e'+     
    21 e'+        22 a'      

   Time after variat. SCF:     27.8
   Time prior to 1st pass:     27.8
 Grid integrated density:      23.999996044949
 Requested integration accuracy:   0.10E-06

           Memory utilization after 1st SCF pass: 
           Heap Space remaining (MW):      131.04           131041678
          Stack Space remaining (MW):      131.06           131064900

   convergence    iter        energy       DeltaE   RMS-Dens  Diis-err    time
 ---------------- ----- ----------------- --------- --------- ---------  ------
 d= 0,ls=0.0,diis     1   -117.9557054523 -1.94D+02  6.79D-04  1.10D-03    28.9
 Grid integrated density:      23.999996072595
 Requested integration accuracy:   0.10E-06
 d= 0,ls=0.0,diis     2   -117.9558213555 -1.16D-04  2.21D-04  1.92D-04    30.4
 Grid integrated density:      23.999996071257
 Requested integration accuracy:   0.10E-06
 d= 0,ls=0.0,diis     3   -117.9558355936 -1.42D-05  1.06D-04  8.40D-05    31.6
 Grid integrated density:      23.999996068485
 Requested integration accuracy:   0.10E-06
 d= 0,ls=0.0,diis     4   -117.9558464914 -1.09D-05  1.19D-05  1.59D-07    32.9
 Grid integrated density:      23.999996069150
 Requested integration accuracy:   0.10E-06
 d= 0,ls=0.0,diis     5   -117.9558465141 -2.27D-08  7.62D-07  1.35D-09    33.9
(nogshift,skip_gshiftAOev,done_Fji)=( 1,F,F)


         Total DFT energy =     -117.955846514143
      One electron energy =     -306.444180350346
           Coulomb energy =      131.491328081176
    Exchange-Corr. energy =      -18.561850798944
 Nuclear repulsion energy =       75.558856553971

       Scaling correction =        0.026234937038

 Numeric. integr. density =       23.999996069150

     Total iterative time =      6.2s



                  Occupations of the irreducible representations
                  ----------------------------------------------

                     irrep           alpha         beta
                     --------     --------     --------
                     a'                3.0          3.0
                     e'+               6.0          6.0
                     e'-               0.0          0.0
                     a"                1.0          1.0
                     e"+               2.0          2.0
                     e"-               0.0          0.0


 center of mass
 --------------
 x =  -0.00000000 y =   0.00000000 z =   0.00000000

 moments of inertia (a.u.)
 ------------------
          90.348445720096           0.000000000000           0.000000000000
           0.000000000000          90.348445720096           0.000000000000
           0.000000000000           0.000000000000         144.158369017388

            General Information
            -------------------
          SCF calculation type: DFT
          Wavefunction type:  closed shell.
          No. of atoms     :     9
          No. of electrons :    24
           Alpha electrons :    12
            Beta electrons :    12
          Charge           :     0
          Spin multiplicity:     1
          Use of symmetry is: on ; symmetry adaption is: on 
          Maximum number of iterations: ***
          This is a Direct SCF calculation.
          AO basis - number of functions:    57
                     number of shells:    39
          Convergence on energy requested:  1.00D-06
          Convergence on density requested:  1.00D-05
          Convergence on gradient requested:  5.00D-04

              XC Information
              --------------
                         B3LYP Method XC Potential
                     Hartree-Fock (Exact) Exchange  0.200          
                        Slater Exchange Functional  0.800 local    
                    Becke 1988 Exchange Functional  0.720 non-local
              Lee-Yang-Parr Correlation Functional  0.810          
                  VWN I RPA Correlation Functional  0.190 local    

             Grid Information
             ----------------
          Grid used for XC integration:  fine      
          Radial quadrature: Mura-Knowles        
          Angular quadrature: Lebedev. 
          Tag              B.-S. Rad. Rad. Pts. Rad. Cut. Ang. Pts.
          ---              ---------- --------- --------- ---------
          C                   0.70       70           8.0       590
          H                   0.35       60          10.0       590
          Grid pruning is: on 
          Number of quadrature shells:   130
          Spatial weights used:  Erf1

          Convergence Information
          -----------------------
          Convergence aids based upon iterative change in 
          total energy or number of iterations. 
          Levelshifting, if invoked, occurs when the 
          HOMO/LUMO gap drops below (HL_TOL):  1.00D-02
          DIIS, if invoked, will attempt to extrapolate 
          using up to (NFOCK): 10 stored Fock matrices.

                    Damping( 0%)  Levelshifting(0.5)       DIIS
                  --------------- ------------------- ---------------
          dE  on:    start            ASAP                start   
          dE off:    2 iters        *** iters           *** iters 


      Screening Tolerance Information
      -------------------------------
          Density screening/tol_rho:  1.00D-10
          AO Gaussian exp screening on grid/accAOfunc:  14
          CD Gaussian exp screening on grid/accCDfunc:  20
          XC Gaussian exp screening on grid/accXCfunc:  20
          Schwarz screening/accCoul:  1.00D-08



                            NWChem DFT Gradient Module
                            --------------------------


                               Molecule conformer 0



  charge          =   0.00
  wavefunction    = closed shell

  Rotation of axis 
  Using symmetry


                         DFT ENERGY GRADIENTS

    atom               coordinates                        gradient
                 x          y          z           x          y          z
   1 C       1.658990   0.178085   0.000000    0.022780   0.002448   0.000000
   2 C      -0.675269  -1.525770   0.000000   -0.009270  -0.020952   0.000000
   3 C      -0.983721   1.347685   0.000000   -0.013510   0.018504   0.000000
   4 H       2.680116   0.287670   1.738170   -0.009443  -0.001017  -0.003176
   5 H       2.680116   0.287670  -1.738170   -0.009443  -0.001017   0.003176
   6 H      -1.090928  -2.464883  -1.738170    0.003841   0.008687   0.003176
   7 H      -1.090928  -2.464883   1.738170    0.003841   0.008687  -0.003176
   8 H      -1.589187   2.177213   1.738170    0.005602  -0.007670  -0.003176
   9 H      -1.589187   2.177213  -1.738170    0.005602  -0.007670   0.003176

                 ----------------------------------------
                 |  Time  |  1-e(secs)   |  2-e(secs)   |
                 ----------------------------------------
                 |  CPU   |       0.00   |       0.02   |
                 ----------------------------------------
                 |  WALL  |       0.00   |       0.02   |
                 ----------------------------------------
  no constraints, skipping    0.0000000000000000     

  Step       Energy      Delta E   Gmax     Grms     Xrms     Xmax   Walltime
  ---- ---------------- -------- -------- -------- -------- -------- --------
@    1    -117.95584651 -7.9D-03  0.00757  0.00284  0.05328  0.10620     35.0
                                                                    



                                Z-matrix (autoz)
                                -------- 

 Units are Angstrom for bonds and degrees for angles

      Type          Name      I     J     K     L     M      Value     Gradient
      ----------- --------  ----- ----- ----- ----- ----- ---------- ----------
    1 Stretch                  1     2                       1.52930    0.00226
    2 Stretch                  1     3                       1.52930    0.00226
    3 Stretch                  1     4                       1.06835   -0.00757
    4 Stretch                  1     5                       1.06835   -0.00757
    5 Stretch                  2     3                       1.52930    0.00226
    6 Stretch                  2     6                       1.06835   -0.00757
    7 Stretch                  2     7                       1.06835   -0.00757
    8 Stretch                  3     8                       1.06835   -0.00757
    9 Stretch                  3     9                       1.06835   -0.00757
   10 Bend                     1     2     3                60.00000   -0.00000
   11 Bend                     1     2     6               116.13860   -0.00102
   12 Bend                     1     2     7               116.13860   -0.00102
   13 Bend                     1     3     2                60.00000   -0.00000
   14 Bend                     1     3     8               116.13771   -0.00102
   15 Bend                     1     3     9               116.13771   -0.00102
   16 Bend                     2     1     3                60.00000    0.00000
   17 Bend                     2     1     4               116.13771   -0.00102
   18 Bend                     2     1     5               116.13771   -0.00102
   19 Bend                     2     3     8               116.13860   -0.00102
   20 Bend                     2     3     9               116.13860   -0.00102
   21 Bend                     3     1     4               116.13860   -0.00102
   22 Bend                     3     1     5               116.13860   -0.00102
   23 Bend                     3     2     6               116.13771   -0.00102
   24 Bend                     3     2     7               116.13771   -0.00102
   25 Bend                     4     1     5               118.84698    0.00246
   26 Bend                     6     2     7               118.84698    0.00246
   27 Bend                     8     3     9               118.84698    0.00246
   28 Torsion                  1     2     3     8        -106.45759    0.00076
   29 Torsion                  1     2     3     9         106.45759   -0.00076
   30 Torsion                  1     3     2     6        -106.45906    0.00076
   31 Torsion                  1     3     2     7         106.45906   -0.00076
   32 Torsion                  2     1     3     8         106.45906   -0.00076
   33 Torsion                  2     1     3     9        -106.45906    0.00076
   34 Torsion                  2     3     1     4        -106.45759    0.00076
   35 Torsion                  2     3     1     5         106.45759   -0.00076
   36 Torsion                  3     1     2     6         106.45759   -0.00076
   37 Torsion                  3     1     2     7        -106.45759    0.00076
   38 Torsion                  3     2     1     4         106.45906   -0.00076
   39 Torsion                  3     2     1     5        -106.45906    0.00076
   40 Torsion                  4     1     2     6        -147.08334   -0.00153
   41 Torsion                  4     1     2     7           0.00147    0.00000
   42 Torsion                  4     1     3     8           0.00147    0.00000
   43 Torsion                  4     1     3     9         147.08334    0.00153
   44 Torsion                  5     1     2     6          -0.00147   -0.00000
   45 Torsion                  5     1     2     7         147.08334    0.00153
   46 Torsion                  5     1     3     8        -147.08334   -0.00153
   47 Torsion                  5     1     3     9          -0.00147   -0.00000
   48 Torsion                  6     2     3     8         147.08334    0.00153
   49 Torsion                  6     2     3     9          -0.00147   -0.00000
   50 Torsion                  7     2     3     8           0.00147    0.00000
   51 Torsion                  7     2     3     9        -147.08334   -0.00153

  no constraints, skipping    0.0000000000000000     
  no constraints, skipping    0.0000000000000000     
  no constraints, skipping    0.0000000000000000     
  no constraints, skipping    0.0000000000000000     
  no constraints, skipping    0.0000000000000000     
  no constraints, skipping    0.0000000000000000     
  no constraints, skipping    0.0000000000000000     
  no constraints, skipping    0.0000000000000000     

                                 NWChem DFT Module
                                 -----------------


                               Molecule conformer 0




 Summary of "ao basis" -> "ao basis" (spherical)
 ------------------------------------------------------------------------------
       Tag                 Description            Shells   Functions and Types
 ---------------- ------------------------------  ------  ---------------------
 C                           6-311G                  7       13   4s3p
 H                           6-311G                  3        3   3s


      Symmetry analysis of basis
      --------------------------

        a'         13
        e'+        13
        e'-        13
        a"          6
        e"+         6
        e"-         6

  Caching 1-el integrals 
  Rotation of axis 

            General Information
            -------------------
          SCF calculation type: DFT
          Wavefunction type:  closed shell.
          No. of atoms     :     9
          No. of electrons :    24
           Alpha electrons :    12
            Beta electrons :    12
          Charge           :     0
          Spin multiplicity:     1
          Use of symmetry is: on ; symmetry adaption is: on 
          Maximum number of iterations: ***
          This is a Direct SCF calculation.
          AO basis - number of functions:    57
                     number of shells:    39
          Convergence on energy requested:  1.00D-06
          Convergence on density requested:  1.00D-05
          Convergence on gradient requested:  5.00D-04

              XC Information
              --------------
                         B3LYP Method XC Potential
                     Hartree-Fock (Exact) Exchange  0.200          
                        Slater Exchange Functional  0.800 local    
                    Becke 1988 Exchange Functional  0.720 non-local
              Lee-Yang-Parr Correlation Functional  0.810          
                  VWN I RPA Correlation Functional  0.190 local    

             Grid Information
             ----------------
          Grid used for XC integration:  fine      
          Radial quadrature: Mura-Knowles        
          Angular quadrature: Lebedev. 
          Tag              B.-S. Rad. Rad. Pts. Rad. Cut. Ang. Pts.
          ---              ---------- --------- --------- ---------
          C                   0.70       70           8.0       590
          H                   0.35       60          10.0       590
          Grid pruning is: on 
          Number of quadrature shells:   130
          Spatial weights used:  Erf1

          Convergence Information
          -----------------------
          Convergence aids based upon iterative change in 
          total energy or number of iterations. 
          Levelshifting, if invoked, occurs when the 
          HOMO/LUMO gap drops below (HL_TOL):  1.00D-02
          DIIS, if invoked, will attempt to extrapolate 
          using up to (NFOCK): 10 stored Fock matrices.

                    Damping( 0%)  Levelshifting(0.5)       DIIS
                  --------------- ------------------- ---------------
          dE  on:    start            ASAP                start   
          dE off:    2 iters        *** iters           *** iters 


      Screening Tolerance Information
      -------------------------------
          Density screening/tol_rho:  1.00D-10
          AO Gaussian exp screening on grid/accAOfunc:  14
          CD Gaussian exp screening on grid/accCDfunc:  20
          XC Gaussian exp screening on grid/accXCfunc:  20
          Schwarz screening/accCoul:  1.00D-08

          Performing ZORA calculations
          ----------------------------


      Superposition of Atomic Density Guess
      -------------------------------------

 Sum of atomic energies:        -116.00451404

 Read atomic ZORA corrections from ./C1CC1_mol_3_conformer_0.zora_sf

 Forcing recalculation of ZORA corrections
       Generating atomic ZORA corrections
       ----------------------------------

 In dft_scf:: zora:Knucl= F

 Grid_pts file          = ./C1CC1_mol_3_conformer_0.gridpts.00
 Record size in doubles =  12289        No. of grid_pts per rec  =   3070
 Max. records in memory =      2        Max. recs in file   =     13628

 Grid integrated density:      23.999990710792
 Requested integration accuracy:   0.10E-06

 Wrote atomic ZORA corrections to ./C1CC1_mol_3_conformer_0.zora_sf


 Loading old vectors from job with title :

Molecule conformer 0


      Symmetry analysis of molecular orbitals - initial
      -------------------------------------------------

  Numbering of irreducible representations: 

     1 a'          2 e'+         3 e'-         4 a"          5 e"+     
     6 e"-     

  Orbital symmetries:

     1 a'          2 e'+         3 e'+         4 a'          5 e'+     
     6 e'+         7 a"          8 a'          9 e"+        10 e"+     
    11 e'+        12 e'+        13 a'         14 a"         15 e'+     
    16 e'+        17 a'         18 e"+        19 e"+        20 e'+     
    21 e'+        22 a'      

   Time after variat. SCF:     40.8
   Time prior to 1st pass:     40.8
 Grid integrated density:      23.999996508929
 Requested integration accuracy:   0.10E-06

           Memory utilization after 1st SCF pass: 
           Heap Space remaining (MW):      131.04           131041678
          Stack Space remaining (MW):      131.06           131064900

   convergence    iter        energy       DeltaE   RMS-Dens  Diis-err    time
 ---------------- ----- ----------------- --------- --------- ---------  ------
 d= 0,ls=0.0,diis     1   -117.9572797355 -1.93D+02  6.67D-04  8.86D-04    42.0
 Grid integrated density:      23.999996510372
 Requested integration accuracy:   0.10E-06
 d= 0,ls=0.0,diis     2   -117.9573941501 -1.14D-04  2.45D-04  1.34D-04    43.2
 Grid integrated density:      23.999996505237
 Requested integration accuracy:   0.10E-06
 d= 0,ls=0.0,diis     3   -117.9574012445 -7.09D-06  9.65D-05  8.81D-05    44.4
 Grid integrated density:      23.999996506138
 Requested integration accuracy:   0.10E-06
 d= 0,ls=0.0,diis     4   -117.9574127987 -1.16D-05  2.19D-06  1.49D-08    45.8
 Grid integrated density:      23.999996505957
 Requested integration accuracy:   0.10E-06
 d= 0,ls=0.0,diis     5   -117.9574128016 -2.83D-09  2.68D-07  7.07D-11    47.2
(nogshift,skip_gshiftAOev,done_Fji)=( 1,F,F)


         Total DFT energy =     -117.957412801579
      One electron energy =     -306.044381160818
           Coulomb energy =      131.281565080465
    Exchange-Corr. energy =      -18.545418859189
 Nuclear repulsion energy =       75.350822137963

       Scaling correction =        0.026239076114

 Numeric. integr. density =       23.999996505957

     Total iterative time =      6.4s



                  Occupations of the irreducible representations
                  ----------------------------------------------

                     irrep           alpha         beta
                     --------     --------     --------
                     a'                3.0          3.0
                     e'+               6.0          6.0
                     e'-               0.0          0.0
                     a"                1.0          1.0
                     e"+               2.0          2.0
                     e"-               0.0          0.0


 center of mass
 --------------
 x =   0.00000000 y =   0.00000000 z =   0.00000000

 moments of inertia (a.u.)
 ------------------
          90.685170646003           0.000000000000           0.000000000000
           0.000000000000          90.685170646003           0.000000000000
           0.000000000000           0.000000000000         145.081016205331
 Line search: 
     step= 1.00 grad=-2.1D-03 hess= 5.1D-04 energy=   -117.957413 mode=downhill
 new step= 2.04                   predicted energy=   -117.957961
  no constraints, skipping    0.0000000000000000     
  no constraints, skipping    0.0000000000000000     
  no constraints, skipping    0.0000000000000000     
  no constraints, skipping    0.0000000000000000     
  no constraints, skipping    0.0000000000000000     
  no constraints, skipping    0.0000000000000000     
  no constraints, skipping    0.0000000000000000     
  no constraints, skipping    0.0000000000000000     

          --------
          Step   2
          --------


                         Geometry "geometry" -> "geometry"
                         ---------------------------------

 Output coordinates in angstroms (scale by  1.889725989 to convert to a.u.)

  No.       Tag          Charge          X              Y              Z
 ---- ---------------- ---------- -------------- -------------- --------------
    1 C                    6.0000     0.87566240     0.09399370     0.00000000
    2 C                    6.0000    -0.35643027    -0.80534273     0.00000000
    3 C                    6.0000    -0.51923213     0.71134903     0.00000000
    4 H                    1.0000     1.45654886     0.15634004     0.91301235
    5 H                    1.0000     1.45654886     0.15634004    -0.91301235
    6 H                    1.0000    -0.59287999    -1.33957834    -0.91301235
    7 H                    1.0000    -0.59287999    -1.33957834     0.91301235
    8 H                    1.0000    -0.86366888     1.18323830     0.91301235
    9 H                    1.0000    -0.86366888     1.18323830    -0.91301235

      Atomic Mass 
      ----------- 

      C                 12.000000
      H                  1.007825


 Effective nuclear repulsion energy (a.u.)      75.1403691167

            Nuclear Dipole moment (a.u.) 
            ----------------------------
        X                 Y               Z
 ---------------- ---------------- ----------------
     0.0000000000     0.0000000000     0.0000000000

      Symmetry information
      --------------------

 Group name             C3h       
 Group number             22
 Group order               6
 No. of unique centers     2

      Symmetry unique atoms

     1    4


                                 NWChem DFT Module
                                 -----------------


                               Molecule conformer 0




 Summary of "ao basis" -> "ao basis" (spherical)
 ------------------------------------------------------------------------------
       Tag                 Description            Shells   Functions and Types
 ---------------- ------------------------------  ------  ---------------------
 C                           6-311G                  7       13   4s3p
 H                           6-311G                  3        3   3s


      Symmetry analysis of basis
      --------------------------

        a'         13
        e'+        13
        e'-        13
        a"          6
        e"+         6
        e"-         6

  Caching 1-el integrals 
  Rotation of axis 

            General Information
            -------------------
          SCF calculation type: DFT
          Wavefunction type:  closed shell.
          No. of atoms     :     9
          No. of electrons :    24
           Alpha electrons :    12
            Beta electrons :    12
          Charge           :     0
          Spin multiplicity:     1
          Use of symmetry is: on ; symmetry adaption is: on 
          Maximum number of iterations: ***
          This is a Direct SCF calculation.
          AO basis - number of functions:    57
                     number of shells:    39
          Convergence on energy requested:  1.00D-06
          Convergence on density requested:  1.00D-05
          Convergence on gradient requested:  5.00D-04

              XC Information
              --------------
                         B3LYP Method XC Potential
                     Hartree-Fock (Exact) Exchange  0.200          
                        Slater Exchange Functional  0.800 local    
                    Becke 1988 Exchange Functional  0.720 non-local
              Lee-Yang-Parr Correlation Functional  0.810          
                  VWN I RPA Correlation Functional  0.190 local    

             Grid Information
             ----------------
          Grid used for XC integration:  fine      
          Radial quadrature: Mura-Knowles        
          Angular quadrature: Lebedev. 
          Tag              B.-S. Rad. Rad. Pts. Rad. Cut. Ang. Pts.
          ---              ---------- --------- --------- ---------
          C                   0.70       70           8.0       590
          H                   0.35       60          10.0       590
          Grid pruning is: on 
          Number of quadrature shells:   130
          Spatial weights used:  Erf1

          Convergence Information
          -----------------------
          Convergence aids based upon iterative change in 
          total energy or number of iterations. 
          Levelshifting, if invoked, occurs when the 
          HOMO/LUMO gap drops below (HL_TOL):  1.00D-02
          DIIS, if invoked, will attempt to extrapolate 
          using up to (NFOCK): 10 stored Fock matrices.

                    Damping( 0%)  Levelshifting(0.5)       DIIS
                  --------------- ------------------- ---------------
          dE  on:    start            ASAP                start   
          dE off:    2 iters        *** iters           *** iters 


      Screening Tolerance Information
      -------------------------------
          Density screening/tol_rho:  1.00D-10
          AO Gaussian exp screening on grid/accAOfunc:  14
          CD Gaussian exp screening on grid/accCDfunc:  20
          XC Gaussian exp screening on grid/accXCfunc:  20
          Schwarz screening/accCoul:  1.00D-08

          Performing ZORA calculations
          ----------------------------


      Superposition of Atomic Density Guess
      -------------------------------------

 Sum of atomic energies:        -116.00451404

 Read atomic ZORA corrections from ./C1CC1_mol_3_conformer_0.zora_sf

 Forcing recalculation of ZORA corrections
       Generating atomic ZORA corrections
       ----------------------------------

 In dft_scf:: zora:Knucl= F

 Grid_pts file          = ./C1CC1_mol_3_conformer_0.gridpts.00
 Record size in doubles =  12289        No. of grid_pts per rec  =   3070
 Max. records in memory =      2        Max. recs in file   =     13618

 Grid integrated density:      23.999990905168
 Requested integration accuracy:   0.10E-06

 Wrote atomic ZORA corrections to ./C1CC1_mol_3_conformer_0.zora_sf


 Loading old vectors from job with title :

Molecule conformer 0


      Symmetry analysis of molecular orbitals - initial
      -------------------------------------------------

  Numbering of irreducible representations: 

     1 a'          2 e'+         3 e'-         4 a"          5 e"+     
     6 e"-     

  Orbital symmetries:

     1 a'          2 e'+         3 e'+         4 a'          5 e'+     
     6 e'+         7 a"          8 a'          9 e"+        10 e"+     
    11 e'+        12 e'+        13 a'         14 a"         15 e'+     
[...]
(dia2,par1)(k,t,iat1,spin)=(  3,  2,  7,  1)=(     3.07598990,     3.07598990,    -1.15457800,    -1.15457800) ppm
(dia2,par1)(k,t,iat1,spin)=(  1,  3,  7,  1)=(     1.94454300,     1.94454300,    -0.18813964,    -0.18813964) ppm
(dia2,par1)(k,t,iat1,spin)=(  2,  3,  7,  1)=(     4.36719315,     4.36719315,    -0.42655865,    -0.42655865) ppm
(dia2,par1)(k,t,iat1,spin)=(  3,  3,  7,  1)=(     1.23794587,     1.23794587,    -1.56166560,    -1.56166560) ppm
 Grid integrated density:      23.999996787705
 Requested integration accuracy:   0.10E-06
dia1(k,t,iat1,ispin)=(  1,  1,  8,  1)=(    21.98196876,    21.98196876) ppm
dia1(k,t,iat1,ispin)=(  1,  2,  8,  1)=(    -4.69696522,    -4.69696522) ppm
dia1(k,t,iat1,ispin)=(  1,  3,  8,  1)=(    -6.82325460,    -6.82325460) ppm
dia1(k,t,iat1,ispin)=(  2,  1,  8,  1)=(    -4.70695403,    -4.70695403) ppm
dia1(k,t,iat1,ispin)=(  2,  2,  8,  1)=(    24.99750239,    24.99750239) ppm
dia1(k,t,iat1,ispin)=(  2,  3,  8,  1)=(     9.35432986,     9.35432986) ppm
dia1(k,t,iat1,ispin)=(  3,  1,  8,  1)=(    -6.60497090,    -6.60497090) ppm
dia1(k,t,iat1,ispin)=(  3,  2,  8,  1)=(     9.03671463,     9.03671463) ppm
dia1(k,t,iat1,ispin)=(  3,  3,  8,  1)=(    32.14510313,    32.14510313) ppm
(dia2,par1)(k,t,iat1,spin)=(  1,  1,  8,  1)=(     5.09989267,     5.09989267,     0.14695513,     0.14695513) ppm
(dia2,par1)(k,t,iat1,spin)=(  2,  1,  8,  1)=(     1.09176701,     1.09176701,     0.23028971,     0.23028971) ppm
(dia2,par1)(k,t,iat1,spin)=(  3,  1,  8,  1)=(     1.97927862,     1.97927862,    -0.74922226,    -0.74922226) ppm
(dia2,par1)(k,t,iat1,spin)=(  1,  2,  8,  1)=(     1.09035208,     1.09035208,     0.23901202,     0.23901202) ppm
(dia2,par1)(k,t,iat1,spin)=(  2,  2,  8,  1)=(     4.40311721,     4.40311721,    -0.01016069,    -0.01016069) ppm
(dia2,par1)(k,t,iat1,spin)=(  3,  2,  8,  1)=(    -2.71253927,    -2.71253927,     1.00942662,     1.00942662) ppm
(dia2,par1)(k,t,iat1,spin)=(  1,  3,  8,  1)=(     2.82076738,     2.82076738,    -0.27500128,    -0.27500128) ppm
(dia2,par1)(k,t,iat1,spin)=(  2,  3,  8,  1)=(    -3.85297314,    -3.85297314,     0.37719095,     0.37719095) ppm
(dia2,par1)(k,t,iat1,spin)=(  3,  3,  8,  1)=(     1.24200022,     1.24200022,    -1.55595474,    -1.55595474) ppm
 Grid integrated density:      23.999996787705
 Requested integration accuracy:   0.10E-06
dia1(k,t,iat1,ispin)=(  1,  1,  9,  1)=(    21.98541617,    21.98541617) ppm
dia1(k,t,iat1,ispin)=(  1,  2,  9,  1)=(    -4.69690893,    -4.69690893) ppm
dia1(k,t,iat1,ispin)=(  1,  3,  9,  1)=(     6.82324018,     6.82324018) ppm
dia1(k,t,iat1,ispin)=(  2,  1,  9,  1)=(    -4.70691309,    -4.70691309) ppm
dia1(k,t,iat1,ispin)=(  2,  2,  9,  1)=(    25.00082082,    25.00082082) ppm
dia1(k,t,iat1,ispin)=(  2,  3,  9,  1)=(    -9.35445868,    -9.35445868) ppm
dia1(k,t,iat1,ispin)=(  3,  1,  9,  1)=(     6.60497932,     6.60497932) ppm
dia1(k,t,iat1,ispin)=(  3,  2,  9,  1)=(    -9.03668367,    -9.03668367) ppm
dia1(k,t,iat1,ispin)=(  3,  3,  9,  1)=(    32.14865823,    32.14865823) ppm
(dia2,par1)(k,t,iat1,spin)=(  1,  1,  9,  1)=(     5.09979543,     5.09979543,     0.14678761,     0.14678761) ppm
(dia2,par1)(k,t,iat1,spin)=(  2,  1,  9,  1)=(     1.09179872,     1.09179872,     0.23026342,     0.23026342) ppm
(dia2,par1)(k,t,iat1,spin)=(  3,  1,  9,  1)=(    -1.97932658,    -1.97932658,     0.74912205,     0.74912205) ppm
(dia2,par1)(k,t,iat1,spin)=(  1,  2,  9,  1)=(     1.09048495,     1.09048495,     0.23882433,     0.23882433) ppm
(dia2,par1)(k,t,iat1,spin)=(  2,  2,  9,  1)=(     4.40325586,     4.40325586,    -0.01022777,    -0.01022777) ppm
(dia2,par1)(k,t,iat1,spin)=(  3,  2,  9,  1)=(     2.71256098,     2.71256098,    -1.00948461,    -1.00948461) ppm
(dia2,par1)(k,t,iat1,spin)=(  1,  3,  9,  1)=(    -2.82106600,    -2.82106600,     0.27500172,     0.27500172) ppm
(dia2,par1)(k,t,iat1,spin)=(  2,  3,  9,  1)=(     3.85309039,     3.85309039,    -0.37719753,    -0.37719753) ppm
(dia2,par1)(k,t,iat1,spin)=(  3,  3,  9,  1)=(     1.24198752,     1.24198752,    -1.55602352,    -1.55602352) ppm
 Grid integrated density:      23.999996787705
 Requested integration accuracy:   0.10E-06

 Wrote ZORA NMR data to ./C1CC1_mol_3_conformer_0.zora_nmrcs

(nogshift,skip_gshiftAOev,done_Fji)=( 1,F,T)


         Total DFT energy =     -117.960432964620
      One electron energy =     -306.329039673378
           Coulomb energy =      131.407097166731
    Exchange-Corr. energy =      -18.544630454260
 Nuclear repulsion energy =       75.454297226501

             COSMO energy =        0.051842769787

       Scaling correction =        0.026376460586

 Numeric. integr. density =       23.999998496546

     Total iterative time =     27.7s


                                   COSMO solvation results
                                   -----------------------

                 gas phase energy =      -117.958419390224
                 sol phase energy =      -117.960432964620
 (electrostatic) solvation energy =         0.002013574396 (    1.26 kcal/mol)

 center of mass
 --------------
 x =   0.00000000 y =   0.00000000 z =   0.00000000

 moments of inertia (a.u.)
 ------------------
          90.209610268282           0.000000000000           0.000000000000
           0.000000000000          90.209610268282           0.000000000000
           0.000000000000           0.000000000000         144.975853231360

            Scalar ZORA NMR Shielding
            -------------------------


          -----------------------------------------
          Chemical Shielding Tensors (GIAO, in ppm)
          -----------------------------------------


 Read ZORA NMR data from ./C1CC1_mol_3_conformer_0.zora_nmrcs

    0 giaofock schwarz done =     100.00%
    0 giaofock schwarz done =      99.95%
                                NWChem CPHF Module
                                ------------------



 solvent parameters
 solvname_short: cdcl3   
 solvname_long:  unknown                            
 dielec:       78.4000
 dielecinf:     1.7769

          ---------------
          -cosmo- solvent
          ---------------
 Cosmo: York-Karplus, doi: 10.1021/jp992097l
 dielectric constant -eps-     =  78.40
 screen = (eps-1)/(eps    )    =   0.98724
 surface charge correction     = lagrangian
 -lineq- algorithm             =   0
 -bem- low  level              =   2
 -bem- from -octahedral-
 gaussian surface charge width =   0.98000
 degree of switching           =   1.00000
 switching function tolerance  =   0.00010
 atomic radii = 
 --------------
    1  6.000  2.000
    2  6.000  2.000
    3  6.000  2.000
    4  1.000  1.300
    5  1.000  1.300
    6  1.000  1.300
    7  1.000  1.300
    8  1.000  1.300
    9  1.000  1.300

 solvent accessible surface
 --------------------------

 ---------- ATOMIC COORDINATES (A.U.) ------------ VDWR(ANG.) --
     1    1.64558410    0.17663160    0.00000000     2.000
     2   -0.66982460   -1.51343344    0.00000000     2.000
     3   -0.97575950    1.33680183    0.00000000     2.000
     4    2.75325847    0.29552525    1.71192329     1.300
     5    2.75325847    0.29552525   -1.71192329     1.300
     6   -1.12069687   -2.53215440   -1.71192329     1.300
     7   -1.12069687   -2.53215440    1.71192329     1.300
     8   -1.63256161    2.23662916    1.71192329     1.300
     9   -1.63256161    2.23662916   -1.71192329     1.300
 number of segments per atom =         32
 number of   points per atom =         32
 atom (   nspa,  nppa )
 ----------------------
    1 (     16,     0 )       0
    2 (     16,     0 )       0
    3 (     18,     0 )       0
    4 (     15,     0 )       0
    5 (     15,     0 )       0
    6 (     15,     0 )       0
    7 (     15,     0 )       0
    8 (     14,     0 )       0
    9 (     14,     0 )       0
 number of -cosmo- surface points =      138
 molecular surface =     96.580 angstrom**2
 molecular volume  =     55.642 angstrom**3
 G(cav/disp)       =      1.343 kcal/mol
 ...... end of -cosmo- initialization ......


  scftype          =     RHF 
  nclosed          =       12
  nopen            =        0
  variables        =      540
  # of vectors     =        3
  tolerance        = 0.10D-03
  level shift      = 0.00D+00
  max iterations   =       50
  max subspace     =       30

 SCF residual:    6.7802961194793733E-005


Iterative solution of linear equations
  No. of variables      540
  No. of equations        3
  Maximum subspace       30
        Iterations       50
       Convergence  1.0D-04
        Start time    298.5


   iter   nsub   residual    time
   ----  ------  --------  ---------
     1      3    3.40D-01     299.9
     2      6    5.23D-03     301.4
     3      9    2.23D-04     303.0
     4     12    9.20D-06     304.4

 Wrote CPHF data to ./C1CC1_mol_3_conformer_0.shieldcphf

 Calc. par tensor-> zora
      Atom:    1  H 
        Diamagnetic
     31.9400      0.8055      7.2626
      0.8055     24.5416      0.7805
      7.2626      0.7805     33.3594

        Paramagnetic
      1.8526     -0.1013     -1.0441
     -0.1013      2.7514     -0.1162
     -1.0441     -0.1162      3.2323

        Total Shielding Tensor
     33.7926      0.7042      6.2184
      0.7042     27.2930      0.6643
      6.2184      0.6643     36.5917

           isotropic =      32.5591
          anisotropy =      13.6067

          Principal Components and Axis System
                 1           2           3
               41.6302     28.8295     27.2176

      1         0.6238      0.7742     -0.1070
      2         0.0667      0.0836      0.9943
      3         0.7787     -0.6274      0.0005



      Atom:    2  H 
        Diamagnetic
     31.9400      0.8054     -7.2626
      0.8054     24.5415     -0.7804
     -7.2626     -0.7804     33.3594

        Paramagnetic
      1.8525     -0.1014      1.0443
     -0.1014      2.7514      0.1163
      1.0443      0.1163      3.2323

        Total Shielding Tensor
     33.7925      0.7041     -6.2184
      0.7041     27.2930     -0.6641
     -6.2184     -0.6641     36.5916

           isotropic =      32.5590
          anisotropy =      13.6065

          Principal Components and Axis System
                 1           2           3
               41.6300     28.8295     27.2176

      1        -0.6238      0.7742     -0.1069
      2        -0.0667      0.0836      0.9943
      3         0.7787      0.6274     -0.0005



      Atom:    3  H 
        Diamagnetic
     25.7020      2.7984      2.9571
      2.7984     30.8117      6.6878
      2.9571      6.6878     33.3917

        Paramagnetic
      2.6134     -0.3407     -0.4323
     -0.3407      1.9814     -0.9723
     -0.4323     -0.9723      3.2198

        Total Shielding Tensor
     28.3154      2.4577      2.5248
      2.4577     32.7931      5.7156
      2.5248      5.7156     36.6114

           isotropic =      32.5733
          anisotropy =      13.6018

          Principal Components and Axis System
                 1           2           3
               41.6412     28.8491     27.2297

      1         0.2534      0.3148      0.9147
      2         0.5736      0.7125     -0.4041
      3         0.7790     -0.6270      0.0000



      Atom:    4  H 
        Diamagnetic
     25.7021      2.7984     -2.9572
      2.7984     30.8117     -6.6878
     -2.9572     -6.6878     33.3917

        Paramagnetic
      2.6133     -0.3408      0.4322
     -0.3408      1.9814      0.9722
      0.4322      0.9722      3.2197

        Total Shielding Tensor
     28.3154      2.4577     -2.5250
      2.4577     32.7931     -5.7156
     -2.5250     -5.7156     36.6115

           isotropic =      32.5733
          anisotropy =      13.6019

          Principal Components and Axis System
                 1           2           3
               41.6412     28.8490     27.2297

      1        -0.2534      0.3148      0.9147
      2        -0.5736      0.7126     -0.4041
      3         0.7790      0.6270      0.0000



      Atom:    5  H 
        Diamagnetic
     27.0819     -3.6109     -4.3141
     -3.6109     29.4006      5.9128
     -4.3141      5.9128     33.3871

        Paramagnetic
      2.4330      0.4419      0.6365
      0.4419      2.1550     -0.8634
      0.6365     -0.8634      3.2155

        Total Shielding Tensor
     29.5149     -3.1690     -3.6776
     -3.1690     31.5556      5.0493
     -3.6776      5.0493     36.6026

           isotropic =      32.5577
          anisotropy =      13.6062

          Principal Components and Axis System
                 1           2           3
               41.6285     28.8386     27.2060

      1        -0.3691     -0.4591      0.8081
      2         0.5067      0.6295      0.5891
      3         0.7791     -0.6269     -0.0003



      Atom:    6  H 
        Diamagnetic
     27.0852     -3.6108      4.3139
     -3.6108     29.4041     -5.9127
      4.3139     -5.9127     33.3906

        Paramagnetic
      2.4337      0.4418     -0.6363
      0.4418      2.1558      0.8634
     -0.6363      0.8634      3.2157

        Total Shielding Tensor
     29.5189     -3.1689      3.6777
     -3.1689     31.5599     -5.0493
      3.6777     -5.0493     36.6063

           isotropic =      32.5617
          anisotropy =      13.6059

          Principal Components and Axis System
                 1           2           3
               41.6323     28.8426     27.2102

      1         0.3691     -0.4590      0.8081
      2        -0.5067      0.6295      0.5890
      3         0.7791      0.6269      0.0002




 Task  times  cpu:       33.7s     wall:       40.1s


                                NWChem Input Module
                                -------------------


 Summary of allocated global arrays
-----------------------------------
  array 0 => double precision sf 1(57,57),  handle: -987 
  array 1 => double precision sf 1(57,57),  handle: -986 
  array 2 => double precision sf 1(57,57),  handle: -985 
  array 3 => double precision sf 1(57,57),  handle: -984 
  array 4 => double precision sf 1(57,57),  handle: -983 
  array 5 => double precision sf 1(57,57),  handle: -982 
  array 6 => double precision sf 1(57,57),  handle: -981 
  array 7 => double precision sf 1(57,57),  handle: -980 
  array 8 => double precision sf 1(57,57),  handle: -979 
  array 9 => double precision sf 1(57,57),  handle: -978 
  array 10 => double precision sf 1(57,57),  handle: -977 
  array 11 => double precision sf 1(57,57),  handle: -976 
  array 12 => double precision sf 1(57,57),  handle: -975 
  array 13 => double precision sf 1(57,57),  handle: -974 
  array 14 => double precision sf 1(57,57),  handle: -973 
  array 15 => double precision sf 1(57,57),  handle: -972 
  array 16 => double precision sf 1(57,57),  handle: -971 
  array 17 => double precision sf 1(57,57),  handle: -970 
  array 18 => double precision sf 1(57,57),  handle: -969 
  array 19 => double precision sf 1(57,57),  handle: -968 
  array 20 => double precision sf 1(57,57),  handle: -967 
  array 21 => double precision sf 1(57,57),  handle: -966 
  array 22 => double precision sf 1(57,57),  handle: -965 



                         GA Statistics for process    0
                         ------------------------------

       create   destroy   get      put      acc     scatter   gather  read&inc
calls: 4489     4328     1.05e+05 2.13e+04 3.57e+04   60        0     4458     
number of processes/call 0.00e+00 0.00e+00 0.00e+00 0.00e+00 0.00e+00
bytes total:             1.10e+08 2.22e+07 8.10e+07 2.24e+02 0.00e+00 3.57e+04
bytes remote:            9.47e+07 1.74e+07 7.30e+07 -1.12e+02 0.00e+00 0.00e+00
Max memory consumed for GA by this process: 375856 bytes

MA_summarize_allocated_blocks: starting scan ...
MA_summarize_allocated_blocks: scan completed: 0 heap blocks, 0 stack blocks
MA usage statistics:

	allocation statistics:
					      heap	     stack
					      ----	     -----
	current number of blocks	         0	         0
	maximum number of blocks	        66	        59
	current total bytes		         0	         0
	maximum total bytes		   1513488	  24871608
	maximum total K-bytes		      1514	     24872
	maximum total M-bytes		         2	        25


                                     CITATION
                                     --------
                Please cite the following reference when publishing
                           results obtained with NWChem:

          E. Apr, E. J. Bylaska, W. A. de Jong, N. Govind, K. Kowalski,
       T. P. Straatsma, M. Valiev, H. J. J. van Dam, Y. Alexeev, J. Anchell,
       V. Anisimov, F. W. Aquino, R. Atta-Fynn, J. Autschbach, N. P. Bauman,
     J. C. Becca, D. E. Bernholdt, K. Bhaskaran-Nair, S. Bogatko, P. Borowski,
        J. Boschen, J. Brabec, A. Bruner, E. Caut, Y. Chen, G. N. Chuev,
      C. J. Cramer, J. Daily, M. J. O. Deegan, T. H. Dunning Jr., M. Dupuis,
   K. G. Dyall, G. I. Fann, S. A. Fischer, A. Fonari, H. Frchtl, L. Gagliardi,
      J. Garza, N. Gawande, S. Ghosh, K. Glaesemann, A. W. Gtz, J. Hammond,
       V. Helms, E. D. Hermes, K. Hirao, S. Hirata, M. Jacquelin, L. Jensen,
   B. G. Johnson, H. Jnsson, R. A. Kendall, M. Klemm, R. Kobayashi, V. Konkov,
      S. Krishnamoorthy, M. Krishnan, Z. Lin, R. D. Lins, R. J. Littlefield,
      A. J. Logsdail, K. Lopata, W. Ma, A. V. Marenich, J. Martin del Campo,
   D. Mejia-Rodriguez, J. E. Moore, J. M. Mullin, T. Nakajima, D. R. Nascimento,
    J. A. Nichols, P. J. Nichols, J. Nieplocha, A. Otero-de-la-Roza, B. Palmer,
    A. Panyala, T. Pirojsirikul, B. Peng, R. Peverati, J. Pittner, L. Pollack,
   R. M. Richard, P. Sadayappan, G. C. Schatz, W. A. Shelton, D. W. Silverstein,
   D. M. A. Smith, T. A. Soares, D. Song, M. Swart, H. L. Taylor, G. S. Thomas,
            V. Tipparaju, D. G. Truhlar, K. Tsemekhman, T. Van Voorhis,
     . Vzquez-Mayagoitia, P. Verma, O. Villa, A. Vishnu, K. D. Vogiatzis,
        D. Wang, J. H. Weare, M. J. Williamson, T. L. Windus, K. Woliski,
        A. T. Wong, Q. Wu, C. Yang, Q. Yu, M. Zacharias, Z. Zhang, Y. Zhao,
                                and R. J. Harrison
                        "NWChem: Past, present, and future
                         J. Chem. Phys. 152, 184102 (2020)
                               doi:10.1063/5.0004997

                                      AUTHORS
                                      -------
     E. Apra, E. J. Bylaska, N. Govind, K. Kowalski, M. Valiev, W. A. de Jong,
      T. P. Straatsma, H. J. J. van Dam, D. Wang, T. L. Windus, N. P. Bauman,
       A. Panyala, J. Hammond, J. Autschbach, K. Bhaskaran-Nair, J. Brabec,
    K. Lopata, S. A. Fischer, S. Krishnamoorthy, M. Jacquelin, W. Ma, M. Klemm,
       O. Villa, Y. Chen, V. Anisimov, F. Aquino, S. Hirata, M. T. Hackler,
           Eric Hermes, L. Jensen, J. E. Moore, J. C. Becca, V. Konjkov,
            D. Mejia-Rodriguez, T. Risthaus, M. Malagoli, A. Marenich,
   A. Otero-de-la-Roza, J. Mullin, P. Nichols, R. Peverati, J. Pittner, Y. Zhao,
        P.-D. Fan, A. Fonari, M. J. Williamson, R. J. Harrison, J. R. Rehr,
      M. Dupuis, D. Silverstein, D. M. A. Smith, J. Nieplocha, V. Tipparaju,
      M. Krishnan, B. E. Van Kuiken, A. Vazquez-Mayagoitia, M. Swart, Q. Wu,
   T. Van Voorhis, A. A. Auer, M. Nooijen, L. D. Crosby, E. Brown, G. Cisneros,
     G. I. Fann, H. Fruchtl, J. Garza, K. Hirao, R. A. Kendall, J. A. Nichols,
       K. Tsemekhman, K. Wolinski, J. Anchell, D. E. Bernholdt, P. Borowski,
       T. Clark, D. Clerc, H. Dachsel, M. J. O. Deegan, K. Dyall, D. Elwood,
      E. Glendening, M. Gutowski, A. C. Hess, J. Jaffe, B. G. Johnson, J. Ju,
        R. Kobayashi, R. Kutteh, Z. Lin, R. Littlefield, X. Long, B. Meng,
      T. Nakajima, S. Niu, L. Pollack, M. Rosing, K. Glaesemann, G. Sandrone,
      M. Stave, H. Taylor, G. Thomas, J. H. van Lenthe, A. T. Wong, Z. Zhang.

 Total times  cpu:      271.6s     wall:      304.7s
