 argument  1 = C1CC1_mol_6_conformer_0.nw



============================== echo of input deck ==============================
start

title "Molecule conformer 0"

memory total 4000 mb

echo
geometry units angstroms
   C     -0.2505     0.8271     0.1424
   C     -0.6016    -0.6280    -0.1040
   C      0.8520    -0.1991    -0.0384
   H     -0.3970     1.1632     1.1908
   H     -0.4070     1.4915    -0.7337
   H     -0.9705    -0.8437    -1.1291
   H     -0.9604    -1.1721     0.7953
   H      1.3725    -0.4836     0.9005
   H      1.3624    -0.1554    -1.0239
end


basis spherical
* library 6-311G
end

driver
  maxiter 500
  xyz final
end

relativistic
  zora on
  zora:cutoff_NMR 1d-8
  zora:cutoff 1d-30
end

dft
  direct
  grid fine
  xc B3LYP
  mult 1
  maxiter 1500
  noprint "final vectors analysis" multipole
end

task dft optimize

task dft freq

property
  shielding 6 4 5 6 7 8 9
end

cosmo
   solvent cdcl3
end

task dft property
================================================================================


                                         
                                         


             Northwest Computational Chemistry Package (NWChem) 7.0.2
             --------------------------------------------------------


                    Environmental Molecular Sciences Laboratory
                       Pacific Northwest National Laboratory
                                Richland, WA 99352

                              Copyright (c) 1994-2020
                       Pacific Northwest National Laboratory
                            Battelle Memorial Institute

             NWChem is an open-source computational chemistry package
                        distributed under the terms of the
                      Educational Community License (ECL) 2.0
             A copy of the license is included with this distribution
                              in the LICENSE.TXT file

                                  ACKNOWLEDGMENT
                                  --------------

            This software and its documentation were developed at the
            EMSL at Pacific Northwest National Laboratory, a multiprogram
            national laboratory, operated for the U.S. Department of Energy
            by Battelle under Contract Number DE-AC05-76RL01830. Support
            for this work was provided by the Department of Energy Office
            of Biological and Environmental Research, Office of Basic
            Energy Sciences, and the Office of Advanced Scientific Computing.


           Job information
           ---------------

    hostname        = ponder
    program         = nwchem
    date            = Fri Aug  2 17:00:39 2024

    compiled        = Sat_Apr_09_17:12:10_2022
    source          = /build/nwchem-f1f4gx/nwchem-7.0.2/build-openmpi
    nwchem branch   = 7.0.2
    nwchem revision = N/A
    ga revision     = 5.8.1
    use scalapack   = T
    input           = C1CC1_mol_6_conformer_0.nw
    prefix          = C1CC1_mol_6_conformer_0.
    data base       = ./C1CC1_mol_6_conformer_0.db
    status          = startup
    nproc           =       40
    time left       =     -1s



           Memory information
           ------------------

    heap     =  131072000 doubles =   1000.0 Mbytes
    stack    =  131071997 doubles =   1000.0 Mbytes
    global   =  262144000 doubles =   2000.0 Mbytes (distinct from heap & stack)
    total    =  524287997 doubles =   4000.0 Mbytes
    verify   = yes
    hardfail = no 


           Directory information
           ---------------------

  0 permanent = .
  0 scratch   = .




                                NWChem Input Module
                                -------------------


                               Molecule conformer 0
                               --------------------

 Scaling coordinates for geometry "geometry" by  1.889725989
 (inverse scale =  0.529177249)

 C3H symmetry detected

          ------
          auto-z
          ------
  no constraints, skipping    0.0000000000000000     
  no constraints, skipping    0.0000000000000000     


                             Geometry "geometry" -> ""
                             -------------------------

 Output coordinates in angstroms (scale by  1.889725989 to convert to a.u.)

  No.       Tag          Charge          X              Y              Z
 ---- ---------------- ---------- -------------- -------------- --------------
    1 C                    6.0000    -0.04922608     0.87445120     0.00000000
    2 C                    6.0000    -0.73268392    -0.47985664     0.00000000
    3 C                    6.0000     0.78191000    -0.39459456     0.00000000
    4 H                    1.0000    -0.07903153     1.40339796     0.97613087
    5 H                    1.0000    -0.07903153     1.40339796    -0.97613087
    6 H                    1.0000    -1.17586253    -0.77014229    -0.97613087
    7 H                    1.0000    -1.17586253    -0.77014229     0.97613087
    8 H                    1.0000     1.25489405    -0.63325567     0.97613087
    9 H                    1.0000     1.25489405    -0.63325567    -0.97613087

      Atomic Mass 
      ----------- 

      C                 12.000000
      H                  1.007825


 Effective nuclear repulsion energy (a.u.)      75.1267842111

            Nuclear Dipole moment (a.u.) 
            ----------------------------
        X                 Y               Z
 ---------------- ---------------- ----------------
     0.0000000000     0.0000000000     0.0000000000

      Symmetry information
      --------------------

 Group name             C3h       
 Group number             22
 Group order               6
 No. of unique centers     2

      Symmetry unique atoms

     1    4



                                Z-matrix (autoz)
                                -------- 

 Units are Angstrom for bonds and degrees for angles

      Type          Name      I     J     K     L     M      Value
      ----------- --------  ----- ----- ----- ----- ----- ----------
    1 Stretch                  1     2                       1.51699
    2 Stretch                  1     3                       1.51699
    3 Stretch                  1     4                       1.11063
    4 Stretch                  1     5                       1.11063
    5 Stretch                  2     3                       1.51699
    6 Stretch                  2     6                       1.11063
    7 Stretch                  2     7                       1.11063
    8 Stretch                  3     8                       1.11063
    9 Stretch                  3     9                       1.11063
   10 Bend                     1     2     3                60.00000
   11 Bend                     1     2     6               114.40087
   12 Bend                     1     2     7               114.40087
   13 Bend                     1     3     2                60.00000
   14 Bend                     1     3     8               114.39922
   15 Bend                     1     3     9               114.39922
   16 Bend                     2     1     3                60.00000
   17 Bend                     2     1     4               114.39922
   18 Bend                     2     1     5               114.39922
   19 Bend                     2     3     8               114.40087
   20 Bend                     2     3     9               114.40087
   21 Bend                     3     1     4               114.40087
   22 Bend                     3     1     5               114.40087
   23 Bend                     3     2     6               114.39922
   24 Bend                     3     2     7               114.39922
   25 Bend                     4     1     5               123.01904
   26 Bend                     6     2     7               123.01904
   27 Bend                     8     3     9               123.01904
   28 Torsion                  1     2     3     8         105.18135
   29 Torsion                  1     2     3     9        -105.18135
   30 Torsion                  1     3     2     6         105.18410
   31 Torsion                  1     3     2     7        -105.18410
   32 Torsion                  2     1     3     8        -105.18410
   33 Torsion                  2     1     3     9         105.18410
   34 Torsion                  2     3     1     4         105.18135
   35 Torsion                  2     3     1     5        -105.18135
   36 Torsion                  3     1     2     6        -105.18135
   37 Torsion                  3     1     2     7         105.18135
   38 Torsion                  3     2     1     4        -105.18410
   39 Torsion                  3     2     1     5         105.18410
   40 Torsion                  4     1     2     6         149.63455
   41 Torsion                  4     1     2     7          -0.00275
   42 Torsion                  4     1     3     8          -0.00275
   43 Torsion                  4     1     3     9        -149.63455
   44 Torsion                  5     1     2     6           0.00275
   45 Torsion                  5     1     2     7        -149.63455
   46 Torsion                  5     1     3     8         149.63455
   47 Torsion                  5     1     3     9           0.00275
   48 Torsion                  6     2     3     8        -149.63455
   49 Torsion                  6     2     3     9           0.00275
   50 Torsion                  7     2     3     8          -0.00275
   51 Torsion                  7     2     3     9         149.63455


            XYZ format geometry
            -------------------
     9
 geometry
 C                    -0.04922608     0.87445120     0.00000000
 C                    -0.73268392    -0.47985664     0.00000000
 C                     0.78191000    -0.39459456     0.00000000
 H                    -0.07903153     1.40339796     0.97613087
 H                    -0.07903153     1.40339796    -0.97613087
 H                    -1.17586253    -0.77014229    -0.97613087
 H                    -1.17586253    -0.77014229     0.97613087
 H                     1.25489405    -0.63325567     0.97613087
 H                     1.25489405    -0.63325567    -0.97613087

 ==============================================================================
                                internuclear distances
 ------------------------------------------------------------------------------
       center one      |      center two      | atomic units |  angstroms
 ------------------------------------------------------------------------------
    2 C                |   1 C                |     2.86670  |     1.51699
    3 C                |   1 C                |     2.86670  |     1.51699
    3 C                |   2 C                |     2.86670  |     1.51699
    4 H                |   1 C                |     2.09879  |     1.11063
    5 H                |   1 C                |     2.09879  |     1.11063
    6 H                |   2 C                |     2.09879  |     1.11063
    7 H                |   2 C                |     2.09879  |     1.11063
    8 H                |   3 C                |     2.09879  |     1.11063
    9 H                |   3 C                |     2.09879  |     1.11063
 ------------------------------------------------------------------------------
                         number of included internuclear distances:          9
 ==============================================================================



 ==============================================================================
                                 internuclear angles
 ------------------------------------------------------------------------------
        center 1       |       center 2       |       center 3       |  degrees
 ------------------------------------------------------------------------------
    1 C                |   2 C                |   3 C                |    60.00
    2 C                |   1 C                |   4 H                |   114.40
    2 C                |   1 C                |   5 H                |   114.40
    3 C                |   1 C                |   4 H                |   114.40
    3 C                |   1 C                |   5 H                |   114.40
    4 H                |   1 C                |   5 H                |   123.02
    2 C                |   1 C                |   3 C                |    60.00
    1 C                |   2 C                |   6 H                |   114.40
    1 C                |   2 C                |   7 H                |   114.40
    3 C                |   2 C                |   6 H                |   114.40
    3 C                |   2 C                |   7 H                |   114.40
    6 H                |   2 C                |   7 H                |   123.02
    3 C                |   1 C                |   2 C                |    60.00
    1 C                |   3 C                |   8 H                |   114.40
    1 C                |   3 C                |   9 H                |   114.40
    2 C                |   3 C                |   8 H                |   114.40
    2 C                |   3 C                |   9 H                |   114.40
    8 H                |   3 C                |   9 H                |   123.02
 ------------------------------------------------------------------------------
                            number of included internuclear angles:         18
 ==============================================================================





 Summary of "ao basis" -> "" (spherical)
 ------------------------------------------------------------------------------
       Tag                 Description            Shells   Functions and Types
 ---------------- ------------------------------  ------  ---------------------
 *                           6-311G                   on all atoms 




                           NWChem Geometry Optimization
                           ----------------------------




                               Molecule conformer 0


  no constraints, skipping    0.0000000000000000     
 maximum gradient threshold         (gmax) =   0.000450
 rms gradient threshold             (grms) =   0.000300
 maximum cartesian step threshold   (xmax) =   0.001800
 rms cartesian step threshold       (xrms) =   0.001200
 fixed trust radius                (trust) =   0.300000
 maximum step size to saddle      (sadstp) =   0.100000
 energy precision                  (eprec) =   5.0D-06
 maximum number of steps          (nptopt) =  500
 initial hessian option           (inhess) =    0
 line search option               (linopt) =    1
 hessian update option            (modupd) =    1
 saddle point option              (modsad) =    0
 initial eigen-mode to follow     (moddir) =    0
 initial variable to follow       (vardir) =    0
 follow first negative mode     (firstneg) =    T
 apply conjugacy                    (opcg) =    F
 source of zmatrix                         =   autoz   


          -------------------
          Energy Minimization
          -------------------


 Names of Z-matrix variables 
    1              2              3              4              5         
    6              7              8              9             10         
   11             12             13             14             15         
   16             17             18             19             20         
   21             22             23             24             25         
   26             27             28             29             30         
   31             32             33             34             35         
   36             37             38             39             40         
   41             42             43             44             45         
   46             47             48             49             50         
   51         

 Variables with the same non-blank name are constrained to be equal


 Using diagonal initial Hessian 
 Scaling for Hessian diagonals: bonds = 1.00  angles = 0.25  torsions = 0.10

          --------
          Step   0
          --------


                         Geometry "geometry" -> "geometry"
                         ---------------------------------

 Output coordinates in angstroms (scale by  1.889725989 to convert to a.u.)

  No.       Tag          Charge          X              Y              Z
 ---- ---------------- ---------- -------------- -------------- --------------
    1 C                    6.0000    -0.04922608     0.87445120     0.00000000
    2 C                    6.0000    -0.73268392    -0.47985664     0.00000000
    3 C                    6.0000     0.78191000    -0.39459456     0.00000000
    4 H                    1.0000    -0.07903153     1.40339796     0.97613087
    5 H                    1.0000    -0.07903153     1.40339796    -0.97613087
    6 H                    1.0000    -1.17586253    -0.77014229    -0.97613087
    7 H                    1.0000    -1.17586253    -0.77014229     0.97613087
    8 H                    1.0000     1.25489405    -0.63325567     0.97613087
    9 H                    1.0000     1.25489405    -0.63325567    -0.97613087

      Atomic Mass 
      ----------- 

      C                 12.000000
      H                  1.007825


 Effective nuclear repulsion energy (a.u.)      75.1267842111

            Nuclear Dipole moment (a.u.) 
            ----------------------------
        X                 Y               Z
 ---------------- ---------------- ----------------
     0.0000000000     0.0000000000     0.0000000000

      Symmetry information
      --------------------

 Group name             C3h       
 Group number             22
 Group order               6
 No. of unique centers     2

      Symmetry unique atoms

     1    4


                                 NWChem DFT Module
                                 -----------------


                               Molecule conformer 0


                      Basis "ao basis" -> "ao basis" (spherical)
                      -----
  C (Carbon)
  ----------
            Exponent  Coefficients 
       -------------- ---------------------------------------------------------
  1 S  4.56324000E+03  0.001967
  1 S  6.82024000E+02  0.015231
  1 S  1.54973000E+02  0.076127
  1 S  4.44553000E+01  0.260801
  1 S  1.30290000E+01  0.616462
  1 S  1.82773000E+00  0.221006

  2 S  2.09642000E+01  0.114660
  2 S  4.80331000E+00  0.919999
  2 S  1.45933000E+00 -0.003031

  3 P  2.09642000E+01  0.040249
  3 P  4.80331000E+00  0.237594
  3 P  1.45933000E+00  0.815854

  4 S  4.83456000E-01  1.000000

  5 P  4.83456000E-01  1.000000

  6 S  1.45585000E-01  1.000000

  7 P  1.45585000E-01  1.000000

  H (Hydrogen)
  ------------
            Exponent  Coefficients 
       -------------- ---------------------------------------------------------
  1 S  3.38650000E+01  0.025494
  1 S  5.09479000E+00  0.190373
  1 S  1.15879000E+00  0.852161

  2 S  3.25840000E-01  1.000000

  3 S  1.02741000E-01  1.000000



 Summary of "ao basis" -> "ao basis" (spherical)
 ------------------------------------------------------------------------------
       Tag                 Description            Shells   Functions and Types
 ---------------- ------------------------------  ------  ---------------------
 C                           6-311G                  7       13   4s3p
 H                           6-311G                  3        3   3s




 Summary of "ao basis" -> "ao basis" (spherical)
 ------------------------------------------------------------------------------
       Tag                 Description            Shells   Functions and Types
 ---------------- ------------------------------  ------  ---------------------
 C                           6-311G                  7       13   4s3p
 H                           6-311G                  3        3   3s


      Symmetry analysis of basis
      --------------------------

        a'         13
        e'+        13
        e'-        13
        a"          6
        e"+         6
        e"-         6

  Caching 1-el integrals 
  Rotation of axis 

            General Information
            -------------------
          SCF calculation type: DFT
          Wavefunction type:  closed shell.
          No. of atoms     :     9
          No. of electrons :    24
           Alpha electrons :    12
            Beta electrons :    12
          Charge           :     0
          Spin multiplicity:     1
          Use of symmetry is: on ; symmetry adaption is: on 
          Maximum number of iterations: ***
          This is a Direct SCF calculation.
          AO basis - number of functions:    57
                     number of shells:    39
          Convergence on energy requested:  1.00D-06
          Convergence on density requested:  1.00D-05
          Convergence on gradient requested:  5.00D-04

              XC Information
              --------------
                         B3LYP Method XC Potential
                     Hartree-Fock (Exact) Exchange  0.200          
                        Slater Exchange Functional  0.800 local    
                    Becke 1988 Exchange Functional  0.720 non-local
              Lee-Yang-Parr Correlation Functional  0.810          
                  VWN I RPA Correlation Functional  0.190 local    

             Grid Information
             ----------------
          Grid used for XC integration:  fine      
          Radial quadrature: Mura-Knowles        
          Angular quadrature: Lebedev. 
          Tag              B.-S. Rad. Rad. Pts. Rad. Cut. Ang. Pts.
          ---              ---------- --------- --------- ---------
          C                   0.70       70           8.0       590
          H                   0.35       60          10.0       590
          Grid pruning is: on 
          Number of quadrature shells:   130
          Spatial weights used:  Erf1

          Convergence Information
          -----------------------
          Convergence aids based upon iterative change in 
          total energy or number of iterations. 
          Levelshifting, if invoked, occurs when the 
          HOMO/LUMO gap drops below (HL_TOL):  1.00D-02
          DIIS, if invoked, will attempt to extrapolate 
          using up to (NFOCK): 10 stored Fock matrices.

                    Damping( 0%)  Levelshifting(0.5)       DIIS
                  --------------- ------------------- ---------------
          dE  on:    start            ASAP                start   
          dE off:    2 iters        *** iters           *** iters 


      Screening Tolerance Information
      -------------------------------
          Density screening/tol_rho:  1.00D-10
          AO Gaussian exp screening on grid/accAOfunc:  14
          CD Gaussian exp screening on grid/accCDfunc:  20
          XC Gaussian exp screening on grid/accXCfunc:  20
          Schwarz screening/accCoul:  1.00D-08

          Performing ZORA calculations
          ----------------------------


      Superposition of Atomic Density Guess
      -------------------------------------

 Sum of atomic energies:        -116.00451404

 Read atomic ZORA corrections from ./C1CC1_mol_6_conformer_0.zora_sf

 dft_zora_read: failed to open./C1CC1_mol_6_conformer_0.zora_sf
 Forcing recalculation of ZORA corrections
       Generating atomic ZORA corrections
       ----------------------------------

 In dft_scf:: zora:Knucl= F

 Grid_pts file          = ./C1CC1_mol_6_conformer_0.gridpts.00
 Record size in doubles =  12289        No. of grid_pts per rec  =   3070
 Max. records in memory =      2        Max. recs in file   =     13608

 Grid integrated density:      24.000005372084
 Requested integration accuracy:   0.10E-06

 Wrote atomic ZORA corrections to ./C1CC1_mol_6_conformer_0.zora_sf


      Superposition of Atomic Density Guess
      -------------------------------------

 Sum of atomic energies:        -116.00451404

      Non-variational initial energy
      ------------------------------

 Total energy =    -118.136683
 1-e energy   =    -302.450494
 2-e energy   =     109.187026
 HOMO         =      -0.346967
 LUMO         =       0.077793


      Symmetry analysis of molecular orbitals - initial
      -------------------------------------------------

  Numbering of irreducible representations: 

     1 a'          2 e'+         3 e'-         4 a"          5 e"+     
     6 e"-     

  Orbital symmetries:

     1 a'          2 e'+         3 e'+         4 a'          5 e'+     
     6 e'+         7 a"          8 a'          9 e"+        10 e"+     
    11 e'+        12 e'+        13 a'         14 a"         15 e'+     
    16 e'+        17 a'         18 e"+        19 e"+        20 e'+     
    21 e'+        22 a'      

   Time after variat. SCF:      4.4
   Time prior to 1st pass:      4.4

           Memory utilization after 1st SCF pass: 
           Heap Space remaining (MW):      131.04           131041680
          Stack Space remaining (MW):      131.06           131064900

   convergence    iter        energy       DeltaE   RMS-Dens  Diis-err    time
 ---------------- ----- ----------------- --------- --------- ---------  ------
 d= 0,ls=0.0,diis     1   -117.9144550176 -1.93D+02  6.25D-03  4.05D-01     5.8
 d= 0,ls=0.0,diis     2   -117.9476912780 -3.32D-02  1.02D-03  1.72D-03     6.9
 d= 0,ls=0.0,diis     3   -117.9478879186 -1.97D-04  2.23D-04  2.04D-04     8.0
 d= 0,ls=0.0,diis     4   -117.9478990224 -1.11D-05  1.22D-04  1.07D-04     9.3
 d= 0,ls=0.0,diis     5   -117.9479133336 -1.43D-05  6.38D-06  6.31D-08    10.5
 d= 0,ls=0.0,diis     6   -117.9479133429 -9.24D-09  1.09D-06  7.72D-10    11.9
(nogshift,skip_gshiftAOev,done_Fji)=( 1,F,F)


         Total DFT energy =     -117.947913342886
      One electron energy =     -305.641146403482
           Coulomb energy =      131.050809661133
    Exchange-Corr. energy =      -18.484360811660
 Nuclear repulsion energy =       75.126784211123

       Scaling correction =        0.026253784187

 Numeric. integr. density =       24.000001930822

     Total iterative time =      7.6s



                  Occupations of the irreducible representations
                  ----------------------------------------------

                     irrep           alpha         beta
                     --------     --------     --------
                     a'                3.0          3.0
                     e'+               6.0          6.0
                     e'-               0.0          0.0
                     a"                1.0          1.0
                     e"+               2.0          2.0
                     e"-               0.0          0.0


 center of mass
 --------------
 x =   0.00000000 y =   0.00000000 z =   0.00000000

 moments of inertia (a.u.)
 ------------------
          91.215720947251           0.000000000000           0.000000000000
           0.000000000000          91.215720947251           0.000000000000
           0.000000000000           0.000000000000         141.280466140516

            General Information
            -------------------
          SCF calculation type: DFT
          Wavefunction type:  closed shell.
          No. of atoms     :     9
          No. of electrons :    24
           Alpha electrons :    12
            Beta electrons :    12
          Charge           :     0
          Spin multiplicity:     1
          Use of symmetry is: on ; symmetry adaption is: on 
          Maximum number of iterations: ***
          This is a Direct SCF calculation.
          AO basis - number of functions:    57
                     number of shells:    39
          Convergence on energy requested:  1.00D-06
          Convergence on density requested:  1.00D-05
          Convergence on gradient requested:  5.00D-04

              XC Information
              --------------
                         B3LYP Method XC Potential
                     Hartree-Fock (Exact) Exchange  0.200          
                        Slater Exchange Functional  0.800 local    
                    Becke 1988 Exchange Functional  0.720 non-local
              Lee-Yang-Parr Correlation Functional  0.810          
                  VWN I RPA Correlation Functional  0.190 local    

             Grid Information
             ----------------
          Grid used for XC integration:  fine      
          Radial quadrature: Mura-Knowles        
          Angular quadrature: Lebedev. 
          Tag              B.-S. Rad. Rad. Pts. Rad. Cut. Ang. Pts.
          ---              ---------- --------- --------- ---------
          C                   0.70       70           8.0       590
          H                   0.35       60          10.0       590
          Grid pruning is: on 
          Number of quadrature shells:   130
          Spatial weights used:  Erf1

          Convergence Information
          -----------------------
          Convergence aids based upon iterative change in 
          total energy or number of iterations. 
          Levelshifting, if invoked, occurs when the 
          HOMO/LUMO gap drops below (HL_TOL):  1.00D-02
          DIIS, if invoked, will attempt to extrapolate 
          using up to (NFOCK): 10 stored Fock matrices.

                    Damping( 0%)  Levelshifting(0.5)       DIIS
                  --------------- ------------------- ---------------
          dE  on:    start            ASAP                start   
          dE off:    2 iters        *** iters           *** iters 


      Screening Tolerance Information
      -------------------------------
          Density screening/tol_rho:  1.00D-10
          AO Gaussian exp screening on grid/accAOfunc:  14
          CD Gaussian exp screening on grid/accCDfunc:  20
          XC Gaussian exp screening on grid/accXCfunc:  20
          Schwarz screening/accCoul:  1.00D-08



                            NWChem DFT Gradient Module
                            --------------------------


                               Molecule conformer 0



  charge          =   0.00
  wavefunction    = closed shell

  Rotation of axis 
  Using symmetry


                         DFT ENERGY GRADIENTS

    atom               coordinates                        gradient
                 x          y          z           x          y          z
   1 C      -0.093024   1.652473   0.000000    0.000401  -0.007002   0.000000
   2 C      -1.384572  -0.906798   0.000000    0.005864   0.003848   0.000000
   3 C       1.477596  -0.745676   0.000000   -0.006264   0.003154   0.000000
   4 H      -0.149348   2.652038   1.844620    0.000121  -0.002175   0.023889
   5 H      -0.149348   2.652038  -1.844620    0.000121  -0.002175  -0.023889
   6 H      -2.222058  -1.455358  -1.844620    0.001823   0.001192  -0.023889
   7 H      -2.222058  -1.455358   1.844620    0.001823   0.001192   0.023889
   8 H       2.371406  -1.196680   1.844620   -0.001944   0.000983   0.023889
   9 H       2.371406  -1.196680  -1.844620   -0.001944   0.000983  -0.023889

                 ----------------------------------------
                 |  Time  |  1-e(secs)   |  2-e(secs)   |
                 ----------------------------------------
                 |  CPU   |       0.00   |       0.02   |
                 ----------------------------------------
                 |  WALL  |       0.00   |       0.02   |
                 ----------------------------------------
  no constraints, skipping    0.0000000000000000     

@ Step       Energy      Delta E   Gmax     Grms     Xrms     Xmax   Walltime
@ ---- ---------------- -------- -------- -------- -------- -------- --------
@    0    -117.94791334  0.0D+00  0.01996  0.00735  0.00000  0.00000     12.7
                                                                    



                                Z-matrix (autoz)
                                -------- 

 Units are Angstrom for bonds and degrees for angles

      Type          Name      I     J     K     L     M      Value     Gradient
      ----------- --------  ----- ----- ----- ----- ----- ---------- ----------
    1 Stretch                  1     2                       1.51699   -0.00656
    2 Stretch                  1     3                       1.51699   -0.00656
    3 Stretch                  1     4                       1.11063    0.01996
    4 Stretch                  1     5                       1.11063    0.01996
    5 Stretch                  2     3                       1.51699   -0.00656
    6 Stretch                  2     6                       1.11063    0.01996
    7 Stretch                  2     7                       1.11063    0.01996
    8 Stretch                  3     8                       1.11063    0.01996
    9 Stretch                  3     9                       1.11063    0.01996
   10 Bend                     1     2     3                60.00000    0.00000
   11 Bend                     1     2     6               114.40087   -0.00221
   12 Bend                     1     2     7               114.40087   -0.00221
   13 Bend                     1     3     2                60.00000    0.00000
   14 Bend                     1     3     8               114.39922   -0.00222
   15 Bend                     1     3     9               114.39922   -0.00222
   16 Bend                     2     1     3                60.00000   -0.00000
   17 Bend                     2     1     4               114.39922   -0.00222
   18 Bend                     2     1     5               114.39922   -0.00222
   19 Bend                     2     3     8               114.40087   -0.00221
   20 Bend                     2     3     9               114.40087   -0.00221
   21 Bend                     3     1     4               114.40087   -0.00221
   22 Bend                     3     1     5               114.40087   -0.00221
   23 Bend                     3     2     6               114.39922   -0.00222
   24 Bend                     3     2     7               114.39922   -0.00222
   25 Bend                     4     1     5               123.01904    0.00530
   26 Bend                     6     2     7               123.01904    0.00530
   27 Bend                     8     3     9               123.01904    0.00530
   28 Torsion                  1     2     3     8         105.18135   -0.00160
   29 Torsion                  1     2     3     9        -105.18135    0.00160
   30 Torsion                  1     3     2     6         105.18410   -0.00160
   31 Torsion                  1     3     2     7        -105.18410    0.00160
   32 Torsion                  2     1     3     8        -105.18410    0.00160
   33 Torsion                  2     1     3     9         105.18410   -0.00160
   34 Torsion                  2     3     1     4         105.18135   -0.00160
   35 Torsion                  2     3     1     5        -105.18135    0.00160
   36 Torsion                  3     1     2     6        -105.18135    0.00160
   37 Torsion                  3     1     2     7         105.18135   -0.00160
   38 Torsion                  3     2     1     4        -105.18410    0.00160
   39 Torsion                  3     2     1     5         105.18410   -0.00160
   40 Torsion                  4     1     2     6         149.63455    0.00320
   41 Torsion                  4     1     2     7          -0.00275   -0.00000
   42 Torsion                  4     1     3     8          -0.00275   -0.00000
   43 Torsion                  4     1     3     9        -149.63455   -0.00320
   44 Torsion                  5     1     2     6           0.00275    0.00000
   45 Torsion                  5     1     2     7        -149.63455   -0.00320
   46 Torsion                  5     1     3     8         149.63455    0.00320
   47 Torsion                  5     1     3     9           0.00275    0.00000
   48 Torsion                  6     2     3     8        -149.63455   -0.00320
   49 Torsion                  6     2     3     9           0.00275    0.00000
   50 Torsion                  7     2     3     8          -0.00275   -0.00000
   51 Torsion                  7     2     3     9         149.63455    0.00320

 Restricting large step in mode   11 eval= 4.4D-02 step=-3.5D-01 new=-3.0D-01
  no constraints, skipping    0.0000000000000000     
  no constraints, skipping    0.0000000000000000     
  no constraints, skipping    0.0000000000000000     
  no constraints, skipping    0.0000000000000000     
  no constraints, skipping    0.0000000000000000     
  no constraints, skipping    0.0000000000000000     
  no constraints, skipping    0.0000000000000000     
  no constraints, skipping    0.0000000000000000     

                                 NWChem DFT Module
                                 -----------------


                               Molecule conformer 0




 Summary of "ao basis" -> "ao basis" (spherical)
 ------------------------------------------------------------------------------
       Tag                 Description            Shells   Functions and Types
 ---------------- ------------------------------  ------  ---------------------
 C                           6-311G                  7       13   4s3p
 H                           6-311G                  3        3   3s


      Symmetry analysis of basis
      --------------------------

        a'         13
        e'+        13
        e'-        13
        a"          6
        e"+         6
        e"-         6

  Caching 1-el integrals 
  Rotation of axis 

            General Information
            -------------------
          SCF calculation type: DFT
          Wavefunction type:  closed shell.
          No. of atoms     :     9
          No. of electrons :    24
           Alpha electrons :    12
            Beta electrons :    12
          Charge           :     0
          Spin multiplicity:     1
          Use of symmetry is: on ; symmetry adaption is: on 
          Maximum number of iterations: ***
          This is a Direct SCF calculation.
          AO basis - number of functions:    57
                     number of shells:    39
          Convergence on energy requested:  1.00D-06
          Convergence on density requested:  1.00D-05
          Convergence on gradient requested:  5.00D-04

              XC Information
              --------------
                         B3LYP Method XC Potential
                     Hartree-Fock (Exact) Exchange  0.200          
                        Slater Exchange Functional  0.800 local    
                    Becke 1988 Exchange Functional  0.720 non-local
              Lee-Yang-Parr Correlation Functional  0.810          
                  VWN I RPA Correlation Functional  0.190 local    

             Grid Information
             ----------------
          Grid used for XC integration:  fine      
          Radial quadrature: Mura-Knowles        
          Angular quadrature: Lebedev. 
          Tag              B.-S. Rad. Rad. Pts. Rad. Cut. Ang. Pts.
          ---              ---------- --------- --------- ---------
          C                   0.70       70           8.0       590
          H                   0.35       60          10.0       590
          Grid pruning is: on 
          Number of quadrature shells:   130
          Spatial weights used:  Erf1

          Convergence Information
          -----------------------
          Convergence aids based upon iterative change in 
          total energy or number of iterations. 
          Levelshifting, if invoked, occurs when the 
          HOMO/LUMO gap drops below (HL_TOL):  1.00D-02
          DIIS, if invoked, will attempt to extrapolate 
          using up to (NFOCK): 10 stored Fock matrices.

                    Damping( 0%)  Levelshifting(0.5)       DIIS
                  --------------- ------------------- ---------------
          dE  on:    start            ASAP                start   
          dE off:    2 iters        *** iters           *** iters 


      Screening Tolerance Information
      -------------------------------
          Density screening/tol_rho:  1.00D-10
          AO Gaussian exp screening on grid/accAOfunc:  14
          CD Gaussian exp screening on grid/accCDfunc:  20
          XC Gaussian exp screening on grid/accXCfunc:  20
          Schwarz screening/accCoul:  1.00D-08

          Performing ZORA calculations
          ----------------------------


      Superposition of Atomic Density Guess
      -------------------------------------

 Sum of atomic energies:        -116.00451404

 Read atomic ZORA corrections from ./C1CC1_mol_6_conformer_0.zora_sf

 Forcing recalculation of ZORA corrections
       Generating atomic ZORA corrections
       ----------------------------------

 In dft_scf:: zora:Knucl= F

 Grid_pts file          = ./C1CC1_mol_6_conformer_0.gridpts.00
 Record size in doubles =  12289        No. of grid_pts per rec  =   3070
 Max. records in memory =      2        Max. recs in file   =     13608

 Grid integrated density:      24.000002408583
 Requested integration accuracy:   0.10E-06

 Wrote atomic ZORA corrections to ./C1CC1_mol_6_conformer_0.zora_sf


 Loading old vectors from job with title :

Molecule conformer 0


      Symmetry analysis of molecular orbitals - initial
      -------------------------------------------------

  Numbering of irreducible representations: 

     1 a'          2 e'+         3 e'-         4 a"          5 e"+     
     6 e"-     

  Orbital symmetries:

     1 a'          2 e'+         3 e'+         4 a'          5 e'+     
     6 e'+         7 a"          8 a'          9 e"+        10 e"+     
    11 e'+        12 e'+        13 a'         14 a"         15 e'+     
    16 e'+        17 a'         18 e"+        19 e"+        20 e'+     
    21 e'+        22 a'      

   Time after variat. SCF:     17.1
   Time prior to 1st pass:     17.1

           Memory utilization after 1st SCF pass: 
           Heap Space remaining (MW):      131.04           131041680
          Stack Space remaining (MW):      131.06           131064900

   convergence    iter        energy       DeltaE   RMS-Dens  Diis-err    time
 ---------------- ----- ----------------- --------- --------- ---------  ------
 d= 0,ls=0.0,diis     1   -117.9542543518 -1.93D+02  2.09D-03  9.50D-03    17.6
 d= 0,ls=0.0,diis     2   -117.9552600358 -1.01D-03  6.67D-04  1.73D-03    18.4
 d= 0,ls=0.0,diis     3   -117.9553898350 -1.30D-04  3.18D-04  7.57D-04    19.3
 d= 0,ls=0.0,diis     4   -117.9554883585 -9.85D-05  3.53D-05  1.30D-06    20.2
 d= 0,ls=0.0,diis     5   -117.9554885446 -1.86D-07  2.24D-06  1.21D-08    21.3
(nogshift,skip_gshiftAOev,done_Fji)=( 1,F,F)


         Total DFT energy =     -117.955488544591
      One electron energy =     -306.234705090225
           Coulomb energy =      131.376647116713
    Exchange-Corr. energy =      -18.541946188058
 Nuclear repulsion energy =       75.444515616979

       Scaling correction =        0.026245554542

 Numeric. integr. density =       24.000000363817

     Total iterative time =      4.3s



                  Occupations of the irreducible representations
                  ----------------------------------------------

                     irrep           alpha         beta
                     --------     --------     --------
                     a'                3.0          3.0
                     e'+               6.0          6.0
                     e'-               0.0          0.0
                     a"                1.0          1.0
                     e"+               2.0          2.0
                     e"-               0.0          0.0


 center of mass
 --------------
 x =  -0.00000000 y =   0.00000000 z =   0.00000000

 moments of inertia (a.u.)
 ------------------
          90.557772763015          -0.000000000000           0.000000000000
          -0.000000000000          90.557772763015           0.000000000000
           0.000000000000           0.000000000000         143.455285171409
 Line search: 
     step= 1.00 grad=-1.2D-02 hess= 4.5D-03 energy=   -117.955489 mode=downhill
 new step= 1.33                   predicted energy=   -117.955992
  no constraints, skipping    0.0000000000000000     
  no constraints, skipping    0.0000000000000000     
  no constraints, skipping    0.0000000000000000     
  no constraints, skipping    0.0000000000000000     
  no constraints, skipping    0.0000000000000000     
  no constraints, skipping    0.0000000000000000     
  no constraints, skipping    0.0000000000000000     
  no constraints, skipping    0.0000000000000000     

          --------
          Step   1
          --------


                         Geometry "geometry" -> "geometry"
                         ---------------------------------

 Output coordinates in angstroms (scale by  1.889725989 to convert to a.u.)

  No.       Tag          Charge          X              Y              Z
 ---- ---------------- ---------- -------------- -------------- --------------
    1 C                    6.0000    -0.04962950     0.88153709     0.00000000
    2 C                    6.0000    -0.73861877    -0.48374895     0.00000000
    3 C                    6.0000     0.78824826    -0.39778814     0.00000000
    4 H                    1.0000    -0.08019654     1.42411062     0.91979871
    5 H                    1.0000    -0.08019654     1.42411062    -0.91979871
    6 H                    1.0000    -1.19321771    -0.78150755    -0.91979871
    7 H                    1.0000    -1.19321771    -0.78150755     0.91979871
    8 H                    1.0000     1.27341425    -0.64260307     0.91979871
    9 H                    1.0000     1.27341425    -0.64260307    -0.91979871

      Atomic Mass 
      ----------- 

      C                 12.000000
      H                  1.007825


 Effective nuclear repulsion energy (a.u.)      75.5598659044

            Nuclear Dipole moment (a.u.) 
            ----------------------------
        X                 Y               Z
 ---------------- ---------------- ----------------
     0.0000000000     0.0000000000     0.0000000000

      Symmetry information
      --------------------

 Group name             C3h       
 Group number             22
 Group order               6
 No. of unique centers     2

      Symmetry unique atoms

     1    4


                                 NWChem DFT Module
                                 -----------------


                               Molecule conformer 0




 Summary of "ao basis" -> "ao basis" (spherical)
 ------------------------------------------------------------------------------
       Tag                 Description            Shells   Functions and Types
 ---------------- ------------------------------  ------  ---------------------
 C                           6-311G                  7       13   4s3p
 H                           6-311G                  3        3   3s


      Symmetry analysis of basis
      --------------------------

        a'         13
        e'+        13
        e'-        13
        a"          6
        e"+         6
        e"-         6

  Caching 1-el integrals 
  Rotation of axis 

            General Information
            -------------------
          SCF calculation type: DFT
          Wavefunction type:  closed shell.
          No. of atoms     :     9
          No. of electrons :    24
           Alpha electrons :    12
            Beta electrons :    12
          Charge           :     0
          Spin multiplicity:     1
          Use of symmetry is: on ; symmetry adaption is: on 
          Maximum number of iterations: ***
          This is a Direct SCF calculation.
          AO basis - number of functions:    57
                     number of shells:    39
          Convergence on energy requested:  1.00D-06
          Convergence on density requested:  1.00D-05
          Convergence on gradient requested:  5.00D-04

              XC Information
              --------------
                         B3LYP Method XC Potential
                     Hartree-Fock (Exact) Exchange  0.200          
                        Slater Exchange Functional  0.800 local    
                    Becke 1988 Exchange Functional  0.720 non-local
              Lee-Yang-Parr Correlation Functional  0.810          
                  VWN I RPA Correlation Functional  0.190 local    

             Grid Information
             ----------------
          Grid used for XC integration:  fine      
          Radial quadrature: Mura-Knowles        
          Angular quadrature: Lebedev. 
          Tag              B.-S. Rad. Rad. Pts. Rad. Cut. Ang. Pts.
          ---              ---------- --------- --------- ---------
          C                   0.70       70           8.0       590
          H                   0.35       60          10.0       590
          Grid pruning is: on 
          Number of quadrature shells:   130
          Spatial weights used:  Erf1

          Convergence Information
          -----------------------
          Convergence aids based upon iterative change in 
          total energy or number of iterations. 
          Levelshifting, if invoked, occurs when the 
          HOMO/LUMO gap drops below (HL_TOL):  1.00D-02
          DIIS, if invoked, will attempt to extrapolate 
          using up to (NFOCK): 10 stored Fock matrices.

                    Damping( 0%)  Levelshifting(0.5)       DIIS
                  --------------- ------------------- ---------------
          dE  on:    start            ASAP                start   
          dE off:    2 iters        *** iters           *** iters 


      Screening Tolerance Information
      -------------------------------
          Density screening/tol_rho:  1.00D-10
          AO Gaussian exp screening on grid/accAOfunc:  14
          CD Gaussian exp screening on grid/accCDfunc:  20
          XC Gaussian exp screening on grid/accXCfunc:  20
          Schwarz screening/accCoul:  1.00D-08

          Performing ZORA calculations
          ----------------------------


      Superposition of Atomic Density Guess
      -------------------------------------

 Sum of atomic energies:        -116.00451404

 Read atomic ZORA corrections from ./C1CC1_mol_6_conformer_0.zora_sf

 Forcing recalculation of ZORA corrections
       Generating atomic ZORA corrections
       ----------------------------------

 In dft_scf:: zora:Knucl= F

 Grid_pts file          = ./C1CC1_mol_6_conformer_0.gridpts.00
 Record size in doubles =  12289        No. of grid_pts per rec  =   3070
 Max. records in memory =      2        Max. recs in file   =     13608


 Wrote atomic ZORA corrections to ./C1CC1_mol_6_conformer_0.zora_sf


 Loading old vectors from job with title :

Molecule conformer 0


      Symmetry analysis of molecular orbitals - initial
      -------------------------------------------------

  Numbering of irreducible representations: 

     1 a'          2 e'+         3 e'-         4 a"          5 e"+     
     6 e"-     

  Orbital symmetries:

     1 a'          2 e'+         3 e'+         4 a'          5 e'+     
     6 e'+         7 a"          8 a'          9 e"+        10 e"+     
    11 e'+        12 e'+        13 a'         14 a"         15 e'+     
    16 e'+        17 a'         18 e"+        19 e"+        20 e'+     
    21 e'+        22 a'      

   Time after variat. SCF:     27.4
   Time prior to 1st pass:     27.4

           Memory utilization after 1st SCF pass: 
           Heap Space remaining (MW):      131.04           131041680
          Stack Space remaining (MW):      131.06           131064900

   convergence    iter        energy       DeltaE   RMS-Dens  Diis-err    time
 ---------------- ----- ----------------- --------- --------- ---------  ------
 d= 0,ls=0.0,diis     1   -117.9557033233 -1.94D+02  6.79D-04  1.11D-03    28.6
 d= 0,ls=0.0,diis     2   -117.9558194157 -1.16D-04  2.21D-04  1.93D-04    30.0
 d= 0,ls=0.0,diis     3   -117.9558337352 -1.43D-05  1.07D-04  8.43D-05    31.4
 d= 0,ls=0.0,diis     4   -117.9558446623 -1.09D-05  1.19D-05  1.59D-07    32.6
 d= 0,ls=0.0,diis     5   -117.9558446850 -2.27D-08  7.62D-07  1.35D-09    33.8
(nogshift,skip_gshiftAOev,done_Fji)=( 1,F,F)


         Total DFT energy =     -117.955844685030
      One electron energy =     -306.446139108924
           Coulomb energy =      131.492332427061
    Exchange-Corr. energy =      -18.561903907537
 Nuclear repulsion energy =       75.559865904370

       Scaling correction =        0.026235817550

 Numeric. integr. density =       24.000000054539

     Total iterative time =      6.4s



                  Occupations of the irreducible representations
                  ----------------------------------------------

                     irrep           alpha         beta
                     --------     --------     --------
                     a'                3.0          3.0
                     e'+               6.0          6.0
                     e'-               0.0          0.0
                     a"                1.0          1.0
                     e"+               2.0          2.0
                     e"-               0.0          0.0


 center of mass
 --------------
 x =   0.00000000 y =   0.00000000 z =   0.00000000

 moments of inertia (a.u.)
 ------------------
          90.346142620979           0.000000000000           0.000000000000
           0.000000000000          90.346142620979           0.000000000000
           0.000000000000           0.000000000000         144.153875707892

            General Information
            -------------------
          SCF calculation type: DFT
          Wavefunction type:  closed shell.
          No. of atoms     :     9
          No. of electrons :    24
           Alpha electrons :    12
            Beta electrons :    12
          Charge           :     0
          Spin multiplicity:     1
          Use of symmetry is: on ; symmetry adaption is: on 
          Maximum number of iterations: ***
          This is a Direct SCF calculation.
          AO basis - number of functions:    57
                     number of shells:    39
          Convergence on energy requested:  1.00D-06
          Convergence on density requested:  1.00D-05
          Convergence on gradient requested:  5.00D-04

              XC Information
              --------------
                         B3LYP Method XC Potential
                     Hartree-Fock (Exact) Exchange  0.200          
                        Slater Exchange Functional  0.800 local    
                    Becke 1988 Exchange Functional  0.720 non-local
              Lee-Yang-Parr Correlation Functional  0.810          
                  VWN I RPA Correlation Functional  0.190 local    

             Grid Information
             ----------------
          Grid used for XC integration:  fine      
          Radial quadrature: Mura-Knowles        
          Angular quadrature: Lebedev. 
          Tag              B.-S. Rad. Rad. Pts. Rad. Cut. Ang. Pts.
          ---              ---------- --------- --------- ---------
          C                   0.70       70           8.0       590
          H                   0.35       60          10.0       590
          Grid pruning is: on 
          Number of quadrature shells:   130
          Spatial weights used:  Erf1

          Convergence Information
          -----------------------
          Convergence aids based upon iterative change in 
          total energy or number of iterations. 
          Levelshifting, if invoked, occurs when the 
          HOMO/LUMO gap drops below (HL_TOL):  1.00D-02
          DIIS, if invoked, will attempt to extrapolate 
          using up to (NFOCK): 10 stored Fock matrices.

                    Damping( 0%)  Levelshifting(0.5)       DIIS
                  --------------- ------------------- ---------------
          dE  on:    start            ASAP                start   
          dE off:    2 iters        *** iters           *** iters 


      Screening Tolerance Information
      -------------------------------
          Density screening/tol_rho:  1.00D-10
          AO Gaussian exp screening on grid/accAOfunc:  14
          CD Gaussian exp screening on grid/accCDfunc:  20
          XC Gaussian exp screening on grid/accXCfunc:  20
          Schwarz screening/accCoul:  1.00D-08



                            NWChem DFT Gradient Module
                            --------------------------


                               Molecule conformer 0



  charge          =   0.00
  wavefunction    = closed shell

  Rotation of axis 
  Using symmetry


                         DFT ENERGY GRADIENTS

    atom               coordinates                        gradient
                 x          y          z           x          y          z
   1 C      -0.093786   1.665864   0.000000   -0.001285   0.022874   0.000000
   2 C      -1.395787  -0.914153   0.000000   -0.019167  -0.012550   0.000000
   3 C       1.489573  -0.751711   0.000000    0.020452  -0.010324   0.000000
   4 H      -0.151549   2.691179   1.738168    0.000534  -0.009491  -0.003185
   5 H      -0.151549   2.691179  -1.738168    0.000534  -0.009491   0.003185
   6 H      -2.254855  -1.476835  -1.738168    0.007953   0.005208   0.003185
   7 H      -2.254855  -1.476835   1.738168    0.007953   0.005208  -0.003185
   8 H       2.406404  -1.214344   1.738168   -0.008486   0.004283  -0.003185
   9 H       2.406404  -1.214344  -1.738168   -0.008486   0.004283   0.003185

                 ----------------------------------------
                 |  Time  |  1-e(secs)   |  2-e(secs)   |
                 ----------------------------------------
                 |  CPU   |       0.00   |       0.01   |
                 ----------------------------------------
                 |  WALL  |       0.00   |       0.01   |
                 ----------------------------------------
  no constraints, skipping    0.0000000000000000     

  Step       Energy      Delta E   Gmax     Grms     Xrms     Xmax   Walltime
  ---- ---------------- -------- -------- -------- -------- -------- --------
@    1    -117.95584469 -7.9D-03  0.00758  0.00284  0.05329  0.10624     34.7
                                                                    



                                Z-matrix (autoz)
                                -------- 

 Units are Angstrom for bonds and degrees for angles

      Type          Name      I     J     K     L     M      Value     Gradient
      ----------- --------  ----- ----- ----- ----- ----- ---------- ----------
    1 Stretch                  1     2                       1.52928    0.00225
    2 Stretch                  1     3                       1.52928    0.00225
    3 Stretch                  1     4                       1.06834   -0.00758
    4 Stretch                  1     5                       1.06834   -0.00758
    5 Stretch                  2     3                       1.52928    0.00225
    6 Stretch                  2     6                       1.06834   -0.00758
    7 Stretch                  2     7                       1.06834   -0.00758
    8 Stretch                  3     8                       1.06834   -0.00758
    9 Stretch                  3     9                       1.06834   -0.00758
   10 Bend                     1     2     3                60.00000    0.00000
   11 Bend                     1     2     6               116.13783   -0.00102
   12 Bend                     1     2     7               116.13783   -0.00102
   13 Bend                     1     3     2                60.00000    0.00000
   14 Bend                     1     3     8               116.13659   -0.00102
   15 Bend                     1     3     9               116.13659   -0.00102
   16 Bend                     2     1     3                60.00000   -0.00000
   17 Bend                     2     1     4               116.13659   -0.00102
   18 Bend                     2     1     5               116.13659   -0.00102
   19 Bend                     2     3     8               116.13783   -0.00102
   20 Bend                     2     3     9               116.13783   -0.00102
   21 Bend                     3     1     4               116.13783   -0.00102
   22 Bend                     3     1     5               116.13783   -0.00102
   23 Bend                     3     2     6               116.13659   -0.00102
   24 Bend                     3     2     7               116.13659   -0.00102
   25 Bend                     4     1     5               118.84926    0.00247
   26 Bend                     6     2     7               118.84926    0.00247
   27 Bend                     8     3     9               118.84926    0.00247
   28 Torsion                  1     2     3     8         106.45659   -0.00076
   29 Torsion                  1     2     3     9        -106.45659    0.00076
   30 Torsion                  1     3     2     6         106.45865   -0.00076
   31 Torsion                  1     3     2     7        -106.45865    0.00076
   32 Torsion                  2     1     3     8        -106.45865    0.00076
   33 Torsion                  2     1     3     9         106.45865   -0.00076
   34 Torsion                  2     3     1     4         106.45659   -0.00076
   35 Torsion                  2     3     1     5        -106.45659    0.00076
   36 Torsion                  3     1     2     6        -106.45659    0.00076
   37 Torsion                  3     1     2     7         106.45659   -0.00076
   38 Torsion                  3     2     1     4        -106.45865    0.00076
   39 Torsion                  3     2     1     5         106.45865   -0.00076
   40 Torsion                  4     1     2     6         147.08476    0.00153
   41 Torsion                  4     1     2     7          -0.00206   -0.00000
   42 Torsion                  4     1     3     8          -0.00206   -0.00000
   43 Torsion                  4     1     3     9        -147.08476   -0.00153
   44 Torsion                  5     1     2     6           0.00206    0.00000
   45 Torsion                  5     1     2     7        -147.08476   -0.00153
   46 Torsion                  5     1     3     8         147.08476    0.00153
   47 Torsion                  5     1     3     9           0.00206    0.00000
   48 Torsion                  6     2     3     8        -147.08476   -0.00153
   49 Torsion                  6     2     3     9           0.00206    0.00000
   50 Torsion                  7     2     3     8          -0.00206   -0.00000
   51 Torsion                  7     2     3     9         147.08476    0.00153

  no constraints, skipping    0.0000000000000000     
  no constraints, skipping    0.0000000000000000     
  no constraints, skipping    0.0000000000000000     
  no constraints, skipping    0.0000000000000000     
  no constraints, skipping    0.0000000000000000     
  no constraints, skipping    0.0000000000000000     
  no constraints, skipping    0.0000000000000000     
  no constraints, skipping    0.0000000000000000     

                                 NWChem DFT Module
                                 -----------------


                               Molecule conformer 0




 Summary of "ao basis" -> "ao basis" (spherical)
 ------------------------------------------------------------------------------
       Tag                 Description            Shells   Functions and Types
 ---------------- ------------------------------  ------  ---------------------
 C                           6-311G                  7       13   4s3p
 H                           6-311G                  3        3   3s


      Symmetry analysis of basis
      --------------------------

        a'         13
        e'+        13
        e'-        13
        a"          6
        e"+         6
        e"-         6

  Caching 1-el integrals 
  Rotation of axis 

            General Information
            -------------------
          SCF calculation type: DFT
          Wavefunction type:  closed shell.
          No. of atoms     :     9
          No. of electrons :    24
           Alpha electrons :    12
            Beta electrons :    12
          Charge           :     0
          Spin multiplicity:     1
          Use of symmetry is: on ; symmetry adaption is: on 
          Maximum number of iterations: ***
          This is a Direct SCF calculation.
          AO basis - number of functions:    57
                     number of shells:    39
          Convergence on energy requested:  1.00D-06
          Convergence on density requested:  1.00D-05
          Convergence on gradient requested:  5.00D-04

              XC Information
              --------------
                         B3LYP Method XC Potential
                     Hartree-Fock (Exact) Exchange  0.200          
                        Slater Exchange Functional  0.800 local    
                    Becke 1988 Exchange Functional  0.720 non-local
              Lee-Yang-Parr Correlation Functional  0.810          
                  VWN I RPA Correlation Functional  0.190 local    

             Grid Information
             ----------------
          Grid used for XC integration:  fine      
          Radial quadrature: Mura-Knowles        
          Angular quadrature: Lebedev. 
          Tag              B.-S. Rad. Rad. Pts. Rad. Cut. Ang. Pts.
          ---              ---------- --------- --------- ---------
          C                   0.70       70           8.0       590
          H                   0.35       60          10.0       590
          Grid pruning is: on 
          Number of quadrature shells:   130
          Spatial weights used:  Erf1

          Convergence Information
          -----------------------
          Convergence aids based upon iterative change in 
          total energy or number of iterations. 
          Levelshifting, if invoked, occurs when the 
          HOMO/LUMO gap drops below (HL_TOL):  1.00D-02
          DIIS, if invoked, will attempt to extrapolate 
          using up to (NFOCK): 10 stored Fock matrices.

                    Damping( 0%)  Levelshifting(0.5)       DIIS
                  --------------- ------------------- ---------------
          dE  on:    start            ASAP                start   
          dE off:    2 iters        *** iters           *** iters 


      Screening Tolerance Information
      -------------------------------
          Density screening/tol_rho:  1.00D-10
          AO Gaussian exp screening on grid/accAOfunc:  14
          CD Gaussian exp screening on grid/accCDfunc:  20
          XC Gaussian exp screening on grid/accXCfunc:  20
          Schwarz screening/accCoul:  1.00D-08

          Performing ZORA calculations
          ----------------------------


      Superposition of Atomic Density Guess
      -------------------------------------

 Sum of atomic energies:        -116.00451404

 Read atomic ZORA corrections from ./C1CC1_mol_6_conformer_0.zora_sf

 Forcing recalculation of ZORA corrections
       Generating atomic ZORA corrections
       ----------------------------------

 In dft_scf:: zora:Knucl= F

 Grid_pts file          = ./C1CC1_mol_6_conformer_0.gridpts.00
 Record size in doubles =  12289        No. of grid_pts per rec  =   3070
 Max. records in memory =      2        Max. recs in file   =     13608

 Grid integrated density:      24.000002604979
 Requested integration accuracy:   0.10E-06

 Wrote atomic ZORA corrections to ./C1CC1_mol_6_conformer_0.zora_sf


 Loading old vectors from job with title :

Molecule conformer 0


      Symmetry analysis of molecular orbitals - initial
      -------------------------------------------------

  Numbering of irreducible representations: 

     1 a'          2 e'+         3 e'-         4 a"          5 e"+     
     6 e"-     

  Orbital symmetries:

     1 a'          2 e'+         3 e'+         4 a'          5 e'+     
     6 e'+         7 a"          8 a'          9 e"+        10 e"+     
    11 e'+        12 e'+        13 a'         14 a"         15 e'+     
    16 e'+        17 a'         18 e"+        19 e"+        20 e'+     
    21 e'+        22 a'      

   Time after variat. SCF:     40.2
   Time prior to 1st pass:     40.2

           Memory utilization after 1st SCF pass: 
           Heap Space remaining (MW):      131.04           131041680
          Stack Space remaining (MW):      131.06           131064900

   convergence    iter        energy       DeltaE   RMS-Dens  Diis-err    time
 ---------------- ----- ----------------- --------- --------- ---------  ------
 d= 0,ls=0.0,diis     1   -117.9572794576 -1.93D+02  6.68D-04  8.88D-04    41.4
 d= 0,ls=0.0,diis     2   -117.9573940119 -1.15D-04  2.45D-04  1.35D-04    42.0
 d= 0,ls=0.0,diis     3   -117.9574011712 -7.16D-06  9.66D-05  8.83D-05    43.2
 d= 0,ls=0.0,diis     4   -117.9574127549 -1.16D-05  2.19D-06  1.49D-08    44.6
 d= 0,ls=0.0,diis     5   -117.9574127578 -2.84D-09  2.67D-07  7.05D-11    45.7
(nogshift,skip_gshiftAOev,done_Fji)=( 1,F,F)


         Total DFT energy =     -117.957412757754
      One electron energy =     -306.045095505432
           Coulomb energy =      131.281926820258
    Exchange-Corr. energy =      -18.545428910755
 Nuclear repulsion energy =       75.351184838175

       Scaling correction =        0.026239084624

 Numeric. integr. density =       24.000000174402

     Total iterative time =      5.6s



                  Occupations of the irreducible representations
                  ----------------------------------------------

                     irrep           alpha         beta
                     --------     --------     --------
                     a'                3.0          3.0
                     e'+               6.0          6.0
                     e'-               0.0          0.0
                     a"                1.0          1.0
                     e"+               2.0          2.0
                     e"-               0.0          0.0


 center of mass
 --------------
 x =   0.00000000 y =   0.00000000 z =   0.00000000

 moments of inertia (a.u.)
 ------------------
          90.684319573364           0.000000000000           0.000000000000
           0.000000000000          90.684319573364           0.000000000000
           0.000000000000           0.000000000000         145.078506331392
 Line search: 
     step= 1.00 grad=-2.1D-03 hess= 5.1D-04 energy=   -117.957413 mode=downhill
 new step= 2.04                   predicted energy=   -117.957961
  no constraints, skipping    0.0000000000000000     
  no constraints, skipping    0.0000000000000000     
  no constraints, skipping    0.0000000000000000     
  no constraints, skipping    0.0000000000000000     
  no constraints, skipping    0.0000000000000000     
  no constraints, skipping    0.0000000000000000     
  no constraints, skipping    0.0000000000000000     
  no constraints, skipping    0.0000000000000000     

          --------
          Step   2
          --------


                         Geometry "geometry" -> "geometry"
                         ---------------------------------

 Output coordinates in angstroms (scale by  1.889725989 to convert to a.u.)

  No.       Tag          Charge          X              Y              Z
 ---- ---------------- ---------- -------------- -------------- --------------
    1 C                    6.0000    -0.04950721     0.87930103     0.00000000
    2 C                    6.0000    -0.73674343    -0.48252502     0.00000000
    3 C                    6.0000     0.78625064    -0.39677601     0.00000000
    4 H                    1.0000    -0.08236112     1.46256859     0.91303904
    5 H                    1.0000    -0.08236112     1.46256859    -0.91303904
    6 H                    1.0000    -1.22544099    -0.80261112    -0.91303904
    7 H                    1.0000    -1.22544099    -0.80261112     0.91303904
    8 H                    1.0000     1.30780211    -0.65995747     0.91303904
    9 H                    1.0000     1.30780211    -0.65995747    -0.91303904

      Atomic Mass 
      ----------- 

      C                 12.000000
      H                  1.007825


 Effective nuclear repulsion energy (a.u.)      75.1403329729

            Nuclear Dipole moment (a.u.) 
            ----------------------------
        X                 Y               Z
 ---------------- ---------------- ----------------
     0.0000000000     0.0000000000     0.0000000000

      Symmetry information
      --------------------

 Group name             C3h       
 Group number             22
 Group order               6
 No. of unique centers     2

      Symmetry unique atoms

     1    4


                                 NWChem DFT Module
                                 -----------------


                               Molecule conformer 0




 Summary of "ao basis" -> "ao basis" (spherical)
 ------------------------------------------------------------------------------
       Tag                 Description            Shells   Functions and Types
 ---------------- ------------------------------  ------  ---------------------
 C                           6-311G                  7       13   4s3p
 H                           6-311G                  3        3   3s


      Symmetry analysis of basis
      --------------------------

        a'         13
        e'+        13
        e'-        13
        a"          6
        e"+         6
        e"-         6

  Caching 1-el integrals 
  Rotation of axis 

            General Information
            -------------------
          SCF calculation type: DFT
          Wavefunction type:  closed shell.
          No. of atoms     :     9
          No. of electrons :    24
           Alpha electrons :    12
            Beta electrons :    12
          Charge           :     0
          Spin multiplicity:     1
          Use of symmetry is: on ; symmetry adaption is: on 
          Maximum number of iterations: ***
          This is a Direct SCF calculation.
          AO basis - number of functions:    57
                     number of shells:    39
          Convergence on energy requested:  1.00D-06
          Convergence on density requested:  1.00D-05
          Convergence on gradient requested:  5.00D-04

              XC Information
              --------------
                         B3LYP Method XC Potential
                     Hartree-Fock (Exact) Exchange  0.200          
                        Slater Exchange Functional  0.800 local    
                    Becke 1988 Exchange Functional  0.720 non-local
              Lee-Yang-Parr Correlation Functional  0.810          
                  VWN I RPA Correlation Functional  0.190 local    

             Grid Information
             ----------------
          Grid used for XC integration:  fine      
          Radial quadrature: Mura-Knowles        
          Angular quadrature: Lebedev. 
          Tag              B.-S. Rad. Rad. Pts. Rad. Cut. Ang. Pts.
          ---              ---------- --------- --------- ---------
          C                   0.70       70           8.0       590
          H                   0.35       60          10.0       590
          Grid pruning is: on 
          Number of quadrature shells:   130
          Spatial weights used:  Erf1

          Convergence Information
          -----------------------
          Convergence aids based upon iterative change in 
          total energy or number of iterations. 
          Levelshifting, if invoked, occurs when the 
          HOMO/LUMO gap drops below (HL_TOL):  1.00D-02
          DIIS, if invoked, will attempt to extrapolate 
          using up to (NFOCK): 10 stored Fock matrices.

                    Damping( 0%)  Levelshifting(0.5)       DIIS
                  --------------- ------------------- ---------------
          dE  on:    start            ASAP                start   
          dE off:    2 iters        *** iters           *** iters 


      Screening Tolerance Information
      -------------------------------
          Density screening/tol_rho:  1.00D-10
          AO Gaussian exp screening on grid/accAOfunc:  14
          CD Gaussian exp screening on grid/accCDfunc:  20
          XC Gaussian exp screening on grid/accXCfunc:  20
          Schwarz screening/accCoul:  1.00D-08

          Performing ZORA calculations
          ----------------------------


      Superposition of Atomic Density Guess
      -------------------------------------

 Sum of atomic energies:        -116.00451404

 Read atomic ZORA corrections from ./C1CC1_mol_6_conformer_0.zora_sf

 Forcing recalculation of ZORA corrections
       Generating atomic ZORA corrections
       ----------------------------------

 In dft_scf:: zora:Knucl= F

 Grid_pts file          = ./C1CC1_mol_6_conformer_0.gridpts.00
 Record size in doubles =  12289        No. of grid_pts per rec  =   3070
 Max. records in memory =      2        Max. recs in file   =     13608

 Grid integrated density:      24.000004113536
 Requested integration accuracy:   0.10E-06

 Wrote atomic ZORA corrections to ./C1CC1_mol_6_conformer_0.zora_sf


 Loading old vectors from job with title :

Molecule conformer 0


      Symmetry analysis of molecular orbitals - initial
      -------------------------------------------------

  Numbering of irreducible representations: 

     1 a'          2 e'+         3 e'-         4 a"          5 e"+     
     6 e"-     

  Orbital symmetries:

     1 a'          2 e'+         3 e'+         4 a'          5 e'+     
     6 e'+         7 a"          8 a'          9 e"+        10 e"+     
    11 e'+        12 e'+        13 a'         14 a"         15 e'+     
    16 e'+        17 a'         18 e"+        19 e"+        20 e'+     
    21 e'+        22 a'      

   Time after variat. SCF:     51.5
   Time prior to 1st pass:     51.5

           Memory utilization after 1st SCF pass: 
           Heap Space remaining (MW):      131.04           131041680
          Stack Space remaining (MW):      131.06           131064900

   convergence    iter        energy       DeltaE   RMS-Dens  Diis-err    time
 ---------------- ----- ----------------- --------- --------- ---------  ------
 d= 0,ls=0.0,diis     1   -117.9578528466 -1.93D+02  6.64D-04  9.34D-04    52.6
 d= 0,ls=0.0,diis     2   -117.9579727136 -1.20D-04  2.51D-04  1.47D-04    53.9
 d= 0,ls=0.0,diis     3   -117.9579804378 -7.72D-06  1.00D-04  9.68D-05    55.0
 d= 0,ls=0.0,diis     4   -117.9579931717 -1.27D-05  2.64D-06  1.56D-08    56.3
 d= 0,ls=0.0,diis     5   -117.9579931746 -2.98D-09  1.88D-07  7.14D-11    57.6
(nogshift,skip_gshiftAOev,done_Fji)=( 1,F,F)


         Total DFT energy =     -117.957993174636
      One electron energy =     -305.637206255108
           Coulomb energy =      131.067385282461
    Exchange-Corr. energy =      -18.528505174894
 Nuclear repulsion energy =       75.140332972905

       Scaling correction =        0.026245181779

 Numeric. integr. density =       24.000000813403

     Total iterative time =      6.2s



                  Occupations of the irreducible representations
                  ----------------------------------------------

                     irrep           alpha         beta
                     --------     --------     --------
                     a'                3.0          3.0
                     e'+               6.0          6.0
                     e'-               0.0          0.0
                     a"                1.0          1.0
                     e"+               2.0          2.0
                     e"-               0.0          0.0


 center of mass
 --------------
 x =   0.00000000 y =   0.00000000 z =   0.00000000

[...]
(dia2,par1)(k,t,iat1,spin)=(  3,  2,  7,  1)=(     1.83872184,     1.83872184,    -0.70081459,    -0.70081459) ppm
(dia2,par1)(k,t,iat1,spin)=(  1,  3,  7,  1)=(     3.98831812,     3.98831812,    -0.39047955,    -0.39047955) ppm
(dia2,par1)(k,t,iat1,spin)=(  2,  3,  7,  1)=(     2.62112492,     2.62112492,    -0.25531661,    -0.25531661) ppm
(dia2,par1)(k,t,iat1,spin)=(  3,  3,  7,  1)=(     1.23638368,     1.23638368,    -1.55464954,    -1.55464954) ppm
 Grid integrated density:      24.000002564361
 Requested integration accuracy:   0.10E-06
dia1(k,t,iat1,ispin)=(  1,  1,  8,  1)=(    26.42391053,    26.42391053) ppm
dia1(k,t,iat1,ispin)=(  1,  2,  8,  1)=(    -3.97690400,    -3.97690400) ppm
dia1(k,t,iat1,ispin)=(  1,  3,  8,  1)=(    10.34411771,    10.34411771) ppm
dia1(k,t,iat1,ispin)=(  2,  1,  8,  1)=(    -3.96147735,    -3.96147735) ppm
dia1(k,t,iat1,ispin)=(  2,  2,  8,  1)=(    20.53782992,    20.53782992) ppm
dia1(k,t,iat1,ispin)=(  2,  3,  8,  1)=(    -5.21610474,    -5.21610474) ppm
dia1(k,t,iat1,ispin)=(  3,  1,  8,  1)=(     9.99252809,     9.99252809) ppm
dia1(k,t,iat1,ispin)=(  3,  2,  8,  1)=(    -5.04502382,    -5.04502382) ppm
dia1(k,t,iat1,ispin)=(  3,  3,  8,  1)=(    32.13165347,    32.13165347) ppm
(dia2,par1)(k,t,iat1,spin)=(  1,  1,  8,  1)=(     4.07381923,     4.07381923,    -0.08086500,    -0.08086500) ppm
(dia2,par1)(k,t,iat1,spin)=(  2,  1,  8,  1)=(     0.92275752,     0.92275752,     0.20259268,     0.20259268) ppm
(dia2,par1)(k,t,iat1,spin)=(  3,  1,  8,  1)=(    -3.00026890,    -3.00026890,     1.12291785,     1.12291785) ppm
(dia2,par1)(k,t,iat1,spin)=(  1,  2,  8,  1)=(     0.92249777,     0.92249777,     0.19174448,     0.19174448) ppm
(dia2,par1)(k,t,iat1,spin)=(  2,  2,  8,  1)=(     5.43006991,     5.43006991,     0.22330572,     0.22330572) ppm
(dia2,par1)(k,t,iat1,spin)=(  3,  2,  8,  1)=(     1.51011899,     1.51011899,    -0.57553128,    -0.57553128) ppm
(dia2,par1)(k,t,iat1,spin)=(  1,  3,  8,  1)=(    -4.25934124,    -4.25934124,     0.41673659,     0.41673659) ppm
(dia2,par1)(k,t,iat1,spin)=(  2,  3,  8,  1)=(     2.16154543,     2.16154543,    -0.20989191,    -0.20989191) ppm
(dia2,par1)(k,t,iat1,spin)=(  3,  3,  8,  1)=(     1.23571180,     1.23571180,    -1.55698269,    -1.55698269) ppm
 Grid integrated density:      24.000002564361
 Requested integration accuracy:   0.10E-06
dia1(k,t,iat1,ispin)=(  1,  1,  9,  1)=(    26.42746985,    26.42746985) ppm
dia1(k,t,iat1,ispin)=(  1,  2,  9,  1)=(    -3.97684882,    -3.97684882) ppm
dia1(k,t,iat1,ispin)=(  1,  3,  9,  1)=(   -10.34423315,   -10.34423315) ppm
dia1(k,t,iat1,ispin)=(  2,  1,  9,  1)=(    -3.96141188,    -3.96141188) ppm
dia1(k,t,iat1,ispin)=(  2,  2,  9,  1)=(    20.54157045,    20.54157045) ppm
dia1(k,t,iat1,ispin)=(  2,  3,  9,  1)=(     5.21608008,     5.21608008) ppm
dia1(k,t,iat1,ispin)=(  3,  1,  9,  1)=(    -9.99248413,    -9.99248413) ppm
dia1(k,t,iat1,ispin)=(  3,  2,  9,  1)=(     5.04502502,     5.04502502) ppm
dia1(k,t,iat1,ispin)=(  3,  3,  9,  1)=(    32.13544743,    32.13544743) ppm
(dia2,par1)(k,t,iat1,spin)=(  1,  1,  9,  1)=(     4.07392152,     4.07392152,    -0.08091813,    -0.08091813) ppm
(dia2,par1)(k,t,iat1,spin)=(  2,  1,  9,  1)=(     0.92288330,     0.92288330,     0.20244439,     0.20244439) ppm
(dia2,par1)(k,t,iat1,spin)=(  3,  1,  9,  1)=(     3.00026995,     3.00026995,    -1.12292352,    -1.12292352) ppm
(dia2,par1)(k,t,iat1,spin)=(  1,  2,  9,  1)=(     0.92253639,     0.92253639,     0.19173229,     0.19173229) ppm
(dia2,par1)(k,t,iat1,spin)=(  2,  2,  9,  1)=(     5.43000542,     5.43000542,     0.22310543,     0.22310543) ppm
(dia2,par1)(k,t,iat1,spin)=(  3,  2,  9,  1)=(    -1.51014205,    -1.51014205,     0.57543045,     0.57543045) ppm
(dia2,par1)(k,t,iat1,spin)=(  1,  3,  9,  1)=(     4.25949266,     4.25949266,    -0.41673987,    -0.41673987) ppm
(dia2,par1)(k,t,iat1,spin)=(  2,  3,  9,  1)=(    -2.16178286,    -2.16178286,     0.20989083,     0.20989083) ppm
(dia2,par1)(k,t,iat1,spin)=(  3,  3,  9,  1)=(     1.23566375,     1.23566375,    -1.55706370,    -1.55706370) ppm
 Grid integrated density:      24.000002564361
 Requested integration accuracy:   0.10E-06

 Wrote ZORA NMR data to ./C1CC1_mol_6_conformer_0.zora_nmrcs

(nogshift,skip_gshiftAOev,done_Fji)=( 1,F,T)


         Total DFT energy =     -117.960550195023
      One electron energy =     -306.333522011333
           Coulomb energy =      131.408551117666
    Exchange-Corr. energy =      -18.544638148884
 Nuclear repulsion energy =       75.453852851526

             COSMO energy =        0.055205996003

       Scaling correction =        0.026376578640

 Numeric. integr. density =       24.000000888775

     Total iterative time =     31.6s


                                   COSMO solvation results
                                   -----------------------

                 gas phase energy =      -117.958419762128
                 sol phase energy =      -117.960550195023
 (electrostatic) solvation energy =         0.002130432896 (    1.34 kcal/mol)

 center of mass
 --------------
 x =   0.00000000 y =   0.00000000 z =   0.00000000

 moments of inertia (a.u.)
 ------------------
          90.210768182656           0.000000000000           0.000000000000
           0.000000000000          90.210768182656           0.000000000000
           0.000000000000           0.000000000000         144.978762635263

            Scalar ZORA NMR Shielding
            -------------------------


          -----------------------------------------
          Chemical Shielding Tensors (GIAO, in ppm)
          -----------------------------------------


 Read ZORA NMR data from ./C1CC1_mol_6_conformer_0.zora_nmrcs

    0 giaofock schwarz done =     100.00%
    0 giaofock schwarz done =      99.23%
                                NWChem CPHF Module
                                ------------------



 solvent parameters
 solvname_short: cdcl3   
 solvname_long:  unknown                            
 dielec:       78.4000
 dielecinf:     1.7769

          ---------------
          -cosmo- solvent
          ---------------
 Cosmo: York-Karplus, doi: 10.1021/jp992097l
 dielectric constant -eps-     =  78.40
 screen = (eps-1)/(eps    )    =   0.98724
 surface charge correction     = lagrangian
 -lineq- algorithm             =   0
 -bem- low  level              =   2
 -bem- from -octahedral-
 gaussian surface charge width =   0.98000
 degree of switching           =   1.00000
 switching function tolerance  =   0.00010
 atomic radii = 
 --------------
    1  6.000  2.000
    2  6.000  2.000
    3  6.000  2.000
    4  1.000  1.300
    5  1.000  1.300
    6  1.000  1.300
    7  1.000  1.300
    8  1.000  1.300
    9  1.000  1.300

 solvent accessible surface
 --------------------------

 ---------- ATOMIC COORDINATES (A.U.) ------------ VDWR(ANG.) --
     1   -0.09304185    1.65243683    0.00000000     2.000
     2   -1.38453135   -0.90679502    0.00000000     2.000
     3    1.47757320   -0.74564181    0.00000000     2.000
     4   -0.15568712    2.76471729    1.71190896     1.300
     5   -0.15568712    2.76471729   -1.71190896     1.300
     6   -2.31647185   -1.51718765   -1.71190896     1.300
     7   -2.31647185   -1.51718765    1.71190896     1.300
     8    2.47215897   -1.24752964    1.71190896     1.300
     9    2.47215897   -1.24752964   -1.71190896     1.300
 number of segments per atom =         32
 number of   points per atom =         32
 atom (   nspa,  nppa )
 ----------------------
    1 (     16,     0 )       0
    2 (     16,     0 )       0
    3 (     16,     0 )       0
    4 (     15,     0 )       0
    5 (     15,     0 )       0
    6 (     14,     0 )       0
    7 (     14,     0 )       0
    8 (     15,     0 )       0
    9 (     15,     0 )       0
 number of -cosmo- surface points =      136
 molecular surface =     98.127 angstrom**2
 molecular volume  =     56.674 angstrom**3
 G(cav/disp)       =      1.351 kcal/mol
 ...... end of -cosmo- initialization ......


  scftype          =     RHF 
  nclosed          =       12
  nopen            =        0
  variables        =      540
  # of vectors     =        3
  tolerance        = 0.10D-03
  level shift      = 0.00D+00
  max iterations   =       50
  max subspace     =       30

 SCF residual:    6.9684991844484425E-005


Iterative solution of linear equations
  No. of variables      540
  No. of equations        3
  Maximum subspace       30
        Iterations       50
       Convergence  1.0D-04
        Start time    296.8


   iter   nsub   residual    time
   ----  ------  --------  ---------
     1      3    3.40D-01     298.3
     2      6    5.22D-03     299.9
     3      9    2.09D-04     301.4
     4     12    8.62D-06     302.9

 Wrote CPHF data to ./C1CC1_mol_6_conformer_0.shieldcphf

 Calc. par tensor-> zora
      Atom:    1  H 
        Diamagnetic
     24.4703     -0.4205     -0.4088
     -0.4205     32.0013      7.2986
     -0.4088      7.2986     33.3516

        Paramagnetic
      2.7597      0.0500      0.0565
      0.0500      1.8393     -1.0436
      0.0565     -1.0436      3.2386

        Total Shielding Tensor
     27.2300     -0.3705     -0.3523
     -0.3705     33.8405      6.2550
     -0.3523      6.2550     36.5902

           isotropic =      32.5536
          anisotropy =      13.6259

          Principal Components and Axis System
                 1           2           3
               41.6375     28.8140     27.2093

      1        -0.0352     -0.0423      0.9985
      2         0.6264      0.7776      0.0550
      3         0.7787     -0.6274      0.0008



      Atom:    2  H 
        Diamagnetic
     24.4702     -0.4206      0.4089
     -0.4206     32.0012     -7.2986
      0.4089     -7.2986     33.3516

        Paramagnetic
      2.7597      0.0500     -0.0564
      0.0500      1.8392      1.0437
     -0.0564      1.0437      3.2386

        Total Shielding Tensor
     27.2299     -0.3706      0.3524
     -0.3706     33.8404     -6.2549
      0.3524     -6.2549     36.5901

           isotropic =      32.5535
          anisotropy =      13.6257

          Principal Components and Axis System
                 1           2           3
               41.6373     28.8140     27.2092

      1         0.0352     -0.0423      0.9985
      2        -0.6264      0.7776      0.0550
      3         0.7787      0.6274     -0.0008



      Atom:    3  H 
        Diamagnetic
     29.7799      3.4754      6.1256
      3.4754     26.7434      4.0107
      6.1256      4.0107     33.4073

        Paramagnetic
      2.1084     -0.4303     -0.8852
     -0.4303      2.4743     -0.5902
     -0.8852     -0.5902      3.2178

        Total Shielding Tensor
     31.8882      3.0451      5.2404
      3.0451     29.2177      3.4206
      5.2404      3.4206     36.6251

           isotropic =      32.5770
          anisotropy =      13.6222

          Principal Components and Axis System
                 1           2           3
               41.6585     28.8446     27.2279

      1         0.5248      0.6517     -0.5477
      2         0.3427      0.4272      0.8367
      3         0.7792     -0.6267      0.0009



      Atom:    4  H 
        Diamagnetic
     29.7799      3.4754     -6.1256
      3.4754     26.7435     -4.0108
     -6.1256     -4.0108     33.4074

        Paramagnetic
      2.1084     -0.4303      0.8852
     -0.4303      2.4741      0.5901
      0.8852      0.5901      3.2177

        Total Shielding Tensor
     31.8882      3.0451     -5.2404
      3.0451     29.2176     -3.4207
     -5.2404     -3.4207     36.6251

           isotropic =      32.5770
          anisotropy =      13.6223

          Principal Components and Axis System
                 1           2           3
               41.6585     28.8445     27.2279

      1        -0.5248      0.6517     -0.5476
      2        -0.3427      0.4272      0.8367
      3         0.7792      0.6267     -0.0008



      Atom:    5  H 
        Diamagnetic
     30.4977     -3.0466      6.5385
     -3.0466     25.9679     -3.2947
      6.5385     -3.2947     33.3674

        Paramagnetic
      2.0158      0.3735     -0.9491
      0.3735      2.5766      0.4817
     -0.9491      0.4817      3.2226

        Total Shielding Tensor
     32.5135     -2.6731      5.5894
     -2.6731     28.5445     -2.8130
      5.5894     -2.8130     36.5899

           isotropic =      32.5493
          anisotropy =      13.6192

          Principal Components and Axis System
                 1           2           3
               41.6288     28.8193     27.1998

      1         0.5603      0.6960      0.4491
      2        -0.2819     -0.3496      0.8935
      3         0.7789     -0.6272      0.0003



      Atom:    6  H 
        Diamagnetic
     30.5014     -3.0464     -6.5385
     -3.0464     25.9716      3.2946
     -6.5385      3.2946     33.3711

        Paramagnetic
      2.0164      0.3734      0.9491
      0.3734      2.5772     -0.4815
      0.9491     -0.4815      3.2227

        Total Shielding Tensor
     32.5178     -2.6730     -5.5894
     -2.6730     28.5487      2.8131
     -5.5894      2.8131     36.5938

           isotropic =      32.5535
          anisotropy =      13.6190

          Principal Components and Axis System
                 1           2           3
               41.6328     28.8235     27.2041

      1        -0.5603      0.6960      0.4491
      2         0.2819     -0.3496      0.8935
      3         0.7789      0.6272     -0.0003




 Task  times  cpu:       39.9s     wall:       44.9s


                                NWChem Input Module
                                -------------------


 Summary of allocated global arrays
-----------------------------------
  array 0 => double precision sf 1(57,57),  handle: -987 
  array 1 => double precision sf 1(57,57),  handle: -986 
  array 2 => double precision sf 1(57,57),  handle: -985 
  array 3 => double precision sf 1(57,57),  handle: -984 
  array 4 => double precision sf 1(57,57),  handle: -983 
  array 5 => double precision sf 1(57,57),  handle: -982 
  array 6 => double precision sf 1(57,57),  handle: -981 
  array 7 => double precision sf 1(57,57),  handle: -980 
  array 8 => double precision sf 1(57,57),  handle: -979 
  array 9 => double precision sf 1(57,57),  handle: -978 
  array 10 => double precision sf 1(57,57),  handle: -977 
  array 11 => double precision sf 1(57,57),  handle: -976 
  array 12 => double precision sf 1(57,57),  handle: -975 
  array 13 => double precision sf 1(57,57),  handle: -974 
  array 14 => double precision sf 1(57,57),  handle: -973 
  array 15 => double precision sf 1(57,57),  handle: -972 
  array 16 => double precision sf 1(57,57),  handle: -971 
  array 17 => double precision sf 1(57,57),  handle: -970 
  array 18 => double precision sf 1(57,57),  handle: -969 
  array 19 => double precision sf 1(57,57),  handle: -968 
  array 20 => double precision sf 1(57,57),  handle: -967 
  array 21 => double precision sf 1(57,57),  handle: -966 
  array 22 => double precision sf 1(57,57),  handle: -965 



                         GA Statistics for process    0
                         ------------------------------

       create   destroy   get      put      acc     scatter   gather  read&inc
calls: 4489     4328     1.09e+05 2.13e+04 3.47e+04   60        0     4500     
number of processes/call 0.00e+00 0.00e+00 0.00e+00 0.00e+00 0.00e+00
bytes total:             1.10e+08 2.22e+07 8.08e+07 2.24e+02 0.00e+00 3.60e+04
bytes remote:            9.47e+07 1.74e+07 7.30e+07 -1.12e+02 0.00e+00 0.00e+00
Max memory consumed for GA by this process: 375856 bytes

MA_summarize_allocated_blocks: starting scan ...
MA_summarize_allocated_blocks: scan completed: 0 heap blocks, 0 stack blocks
MA usage statistics:

	allocation statistics:
					      heap	     stack
					      ----	     -----
	current number of blocks	         0	         0
	maximum number of blocks	        66	        59
	current total bytes		         0	         0
	maximum total bytes		   1513344	  24871560
	maximum total K-bytes		      1514	     24872
	maximum total M-bytes		         2	        25


                                     CITATION
                                     --------
                Please cite the following reference when publishing
                           results obtained with NWChem:

          E. Apr, E. J. Bylaska, W. A. de Jong, N. Govind, K. Kowalski,
       T. P. Straatsma, M. Valiev, H. J. J. van Dam, Y. Alexeev, J. Anchell,
       V. Anisimov, F. W. Aquino, R. Atta-Fynn, J. Autschbach, N. P. Bauman,
     J. C. Becca, D. E. Bernholdt, K. Bhaskaran-Nair, S. Bogatko, P. Borowski,
        J. Boschen, J. Brabec, A. Bruner, E. Caut, Y. Chen, G. N. Chuev,
      C. J. Cramer, J. Daily, M. J. O. Deegan, T. H. Dunning Jr., M. Dupuis,
   K. G. Dyall, G. I. Fann, S. A. Fischer, A. Fonari, H. Frchtl, L. Gagliardi,
      J. Garza, N. Gawande, S. Ghosh, K. Glaesemann, A. W. Gtz, J. Hammond,
       V. Helms, E. D. Hermes, K. Hirao, S. Hirata, M. Jacquelin, L. Jensen,
   B. G. Johnson, H. Jnsson, R. A. Kendall, M. Klemm, R. Kobayashi, V. Konkov,
      S. Krishnamoorthy, M. Krishnan, Z. Lin, R. D. Lins, R. J. Littlefield,
      A. J. Logsdail, K. Lopata, W. Ma, A. V. Marenich, J. Martin del Campo,
   D. Mejia-Rodriguez, J. E. Moore, J. M. Mullin, T. Nakajima, D. R. Nascimento,
    J. A. Nichols, P. J. Nichols, J. Nieplocha, A. Otero-de-la-Roza, B. Palmer,
    A. Panyala, T. Pirojsirikul, B. Peng, R. Peverati, J. Pittner, L. Pollack,
   R. M. Richard, P. Sadayappan, G. C. Schatz, W. A. Shelton, D. W. Silverstein,
   D. M. A. Smith, T. A. Soares, D. Song, M. Swart, H. L. Taylor, G. S. Thomas,
            V. Tipparaju, D. G. Truhlar, K. Tsemekhman, T. Van Voorhis,
     . Vzquez-Mayagoitia, P. Verma, O. Villa, A. Vishnu, K. D. Vogiatzis,
        D. Wang, J. H. Weare, M. J. Williamson, T. L. Windus, K. Woliski,
        A. T. Wong, Q. Wu, C. Yang, Q. Yu, M. Zacharias, Z. Zhang, Y. Zhao,
                                and R. J. Harrison
                        "NWChem: Past, present, and future
                         J. Chem. Phys. 152, 184102 (2020)
                               doi:10.1063/5.0004997

                                      AUTHORS
                                      -------
     E. Apra, E. J. Bylaska, N. Govind, K. Kowalski, M. Valiev, W. A. de Jong,
      T. P. Straatsma, H. J. J. van Dam, D. Wang, T. L. Windus, N. P. Bauman,
       A. Panyala, J. Hammond, J. Autschbach, K. Bhaskaran-Nair, J. Brabec,
    K. Lopata, S. A. Fischer, S. Krishnamoorthy, M. Jacquelin, W. Ma, M. Klemm,
       O. Villa, Y. Chen, V. Anisimov, F. Aquino, S. Hirata, M. T. Hackler,
           Eric Hermes, L. Jensen, J. E. Moore, J. C. Becca, V. Konjkov,
            D. Mejia-Rodriguez, T. Risthaus, M. Malagoli, A. Marenich,
   A. Otero-de-la-Roza, J. Mullin, P. Nichols, R. Peverati, J. Pittner, Y. Zhao,
        P.-D. Fan, A. Fonari, M. J. Williamson, R. J. Harrison, J. R. Rehr,
      M. Dupuis, D. Silverstein, D. M. A. Smith, J. Nieplocha, V. Tipparaju,
      M. Krishnan, B. E. Van Kuiken, A. Vazquez-Mayagoitia, M. Swart, Q. Wu,
   T. Van Voorhis, A. A. Auer, M. Nooijen, L. D. Crosby, E. Brown, G. Cisneros,
     G. I. Fann, H. Fruchtl, J. Garza, K. Hirao, R. A. Kendall, J. A. Nichols,
       K. Tsemekhman, K. Wolinski, J. Anchell, D. E. Bernholdt, P. Borowski,
       T. Clark, D. Clerc, H. Dachsel, M. J. O. Deegan, K. Dyall, D. Elwood,
      E. Glendening, M. Gutowski, A. C. Hess, J. Jaffe, B. G. Johnson, J. Ju,
        R. Kobayashi, R. Kutteh, Z. Lin, R. Littlefield, X. Long, B. Meng,
      T. Nakajima, S. Niu, L. Pollack, M. Rosing, K. Glaesemann, G. Sandrone,
      M. Stave, H. Taylor, G. Thomas, J. H. van Lenthe, A. T. Wong, Z. Zhang.

 Total times  cpu:      272.2s     wall:      303.1s
