 argument  1 = C1CC1_mol_7_conformer_0.nw



============================== echo of input deck ==============================
start

title "Molecule conformer 0"

memory total 4000 mb

echo
geometry units angstroms
   C     -0.6924    -0.5305    -0.0794
   C      0.8105    -0.3241    -0.0726
   C     -0.1180     0.8543     0.1520
   H     -1.0928    -1.0194     0.8339
   H     -1.1302    -0.6828    -1.0887
   H      1.3196    -0.6883     0.8448
   H      1.2820    -0.3513    -1.0778
   H     -0.1705     1.2028     1.2052
   H     -0.2082     1.5395    -0.7174
end


basis spherical
* library 6-311G
end

driver
  maxiter 500
  xyz final
end

relativistic
  zora on
  zora:cutoff_NMR 1d-8
  zora:cutoff 1d-30
end

dft
  direct
  grid fine
  xc B3LYP
  mult 1
  maxiter 1500
  noprint "final vectors analysis" multipole
end

task dft optimize

task dft freq

property
  shielding 6 4 5 6 7 8 9
end

cosmo
   solvent cdcl3
end

task dft property
================================================================================


                                         
                                         


             Northwest Computational Chemistry Package (NWChem) 7.0.2
             --------------------------------------------------------


                    Environmental Molecular Sciences Laboratory
                       Pacific Northwest National Laboratory
                                Richland, WA 99352

                              Copyright (c) 1994-2020
                       Pacific Northwest National Laboratory
                            Battelle Memorial Institute

             NWChem is an open-source computational chemistry package
                        distributed under the terms of the
                      Educational Community License (ECL) 2.0
             A copy of the license is included with this distribution
                              in the LICENSE.TXT file

                                  ACKNOWLEDGMENT
                                  --------------

            This software and its documentation were developed at the
            EMSL at Pacific Northwest National Laboratory, a multiprogram
            national laboratory, operated for the U.S. Department of Energy
            by Battelle under Contract Number DE-AC05-76RL01830. Support
            for this work was provided by the Department of Energy Office
            of Biological and Environmental Research, Office of Basic
            Energy Sciences, and the Office of Advanced Scientific Computing.


           Job information
           ---------------

    hostname        = ponder
    program         = nwchem
    date            = Fri Aug  2 17:05:43 2024

    compiled        = Sat_Apr_09_17:12:10_2022
    source          = /build/nwchem-f1f4gx/nwchem-7.0.2/build-openmpi
    nwchem branch   = 7.0.2
    nwchem revision = N/A
    ga revision     = 5.8.1
    use scalapack   = T
    input           = C1CC1_mol_7_conformer_0.nw
    prefix          = C1CC1_mol_7_conformer_0.
    data base       = ./C1CC1_mol_7_conformer_0.db
    status          = startup
    nproc           =       40
    time left       =     -1s



           Memory information
           ------------------

    heap     =  131071994 doubles =   1000.0 Mbytes
    stack    =  131071999 doubles =   1000.0 Mbytes
    global   =  262144000 doubles =   2000.0 Mbytes (distinct from heap & stack)
    total    =  524287993 doubles =   4000.0 Mbytes
    verify   = yes
    hardfail = no 


           Directory information
           ---------------------

  0 permanent = .
  0 scratch   = .




                                NWChem Input Module
                                -------------------


                               Molecule conformer 0
                               --------------------

 Scaling coordinates for geometry "geometry" by  1.889725989
 (inverse scale =  0.529177249)

 D3H symmetry detected

          ------
          auto-z
          ------
  no constraints, skipping    0.0000000000000000     
  no constraints, skipping    0.0000000000000000     


                             Geometry "geometry" -> ""
                             -------------------------

 Output coordinates in angstroms (scale by  1.889725989 to convert to a.u.)

  No.       Tag          Charge          X              Y              Z
 ---- ---------------- ---------- -------------- -------------- --------------
    1 C                    6.0000    -0.84598601     0.22668127     0.00000000
    2 C                    6.0000     0.22668127    -0.84598601     0.00000000
    3 C                    6.0000     0.61930474     0.61930474     0.00000000
    4 H                    1.0000    -1.35772101     0.36380025     0.97611651
    5 H                    1.0000    -1.35772101     0.36380025    -0.97611651
    6 H                    1.0000     0.36380025    -1.35772101     0.97611651
    7 H                    1.0000     0.36380025    -1.35772101    -0.97611651
    8 H                    1.0000     0.99392076     0.99392076     0.97611651
    9 H                    1.0000     0.99392076     0.99392076    -0.97611651

      Atomic Mass 
      ----------- 

      C                 12.000000
      H                  1.007825


 Effective nuclear repulsion energy (a.u.)      75.1273932879

            Nuclear Dipole moment (a.u.) 
            ----------------------------
        X                 Y               Z
 ---------------- ---------------- ----------------
     0.0000000000     0.0000000000     0.0000000000

      Symmetry information
      --------------------

 Group name             D3h       
 Group number             27
 Group order              12
 No. of unique centers     2

      Symmetry unique atoms

     1    4



                                Z-matrix (autoz)
                                -------- 

 Units are Angstrom for bonds and degrees for angles

      Type          Name      I     J     K     L     M      Value
      ----------- --------  ----- ----- ----- ----- ----- ----------
    1 Stretch                  1     2                       1.51698
    2 Stretch                  1     3                       1.51698
    3 Stretch                  1     4                       1.11062
    4 Stretch                  1     5                       1.11062
    5 Stretch                  2     3                       1.51698
    6 Stretch                  2     6                       1.11062
    7 Stretch                  2     7                       1.11062
    8 Stretch                  3     8                       1.11062
    9 Stretch                  3     9                       1.11062
   10 Bend                     1     2     3                60.00000
   11 Bend                     1     2     6               114.40039
   12 Bend                     1     2     7               114.40039
   13 Bend                     1     3     2                60.00000
   14 Bend                     1     3     8               114.40039
   15 Bend                     1     3     9               114.40039
   16 Bend                     2     1     3                60.00000
   17 Bend                     2     1     4               114.40039
   18 Bend                     2     1     5               114.40039
   19 Bend                     2     3     8               114.40039
   20 Bend                     2     3     9               114.40039
   21 Bend                     3     1     4               114.40039
   22 Bend                     3     1     5               114.40039
   23 Bend                     3     2     6               114.40039
   24 Bend                     3     2     7               114.40039
   25 Bend                     4     1     5               123.01822
   26 Bend                     6     2     7               123.01822
   27 Bend                     8     3     9               123.01822
   28 Torsion                  1     2     3     8         105.18297
   29 Torsion                  1     2     3     9        -105.18297
   30 Torsion                  1     3     2     6        -105.18297
   31 Torsion                  1     3     2     7         105.18297
   32 Torsion                  2     1     3     8        -105.18297
   33 Torsion                  2     1     3     9         105.18297
   34 Torsion                  2     3     1     4         105.18297
   35 Torsion                  2     3     1     5        -105.18297
   36 Torsion                  3     1     2     6         105.18297
   37 Torsion                  3     1     2     7        -105.18297
   38 Torsion                  3     2     1     4        -105.18297
   39 Torsion                  3     2     1     5         105.18297
   40 Torsion                  4     1     2     6           0.00000
   41 Torsion                  4     1     2     7         149.63405
   42 Torsion                  4     1     3     8          -0.00000
   43 Torsion                  4     1     3     9        -149.63405
   44 Torsion                  5     1     2     6        -149.63405
   45 Torsion                  5     1     2     7          -0.00000
   46 Torsion                  5     1     3     8         149.63405
   47 Torsion                  5     1     3     9           0.00000
   48 Torsion                  6     2     3     8           0.00000
   49 Torsion                  6     2     3     9         149.63405
   50 Torsion                  7     2     3     8        -149.63405
   51 Torsion                  7     2     3     9          -0.00000


            XYZ format geometry
            -------------------
     9
 geometry
 C                    -0.84598601     0.22668127     0.00000000
 C                     0.22668127    -0.84598601     0.00000000
 C                     0.61930474     0.61930474     0.00000000
 H                    -1.35772101     0.36380025     0.97611651
 H                    -1.35772101     0.36380025    -0.97611651
 H                     0.36380025    -1.35772101     0.97611651
 H                     0.36380025    -1.35772101    -0.97611651
 H                     0.99392076     0.99392076     0.97611651
 H                     0.99392076     0.99392076    -0.97611651

 ==============================================================================
                                internuclear distances
 ------------------------------------------------------------------------------
       center one      |      center two      | atomic units |  angstroms
 ------------------------------------------------------------------------------
    2 C                |   1 C                |     2.86668  |     1.51698
    3 C                |   1 C                |     2.86668  |     1.51698
    3 C                |   2 C                |     2.86668  |     1.51698
    4 H                |   1 C                |     2.09877  |     1.11062
    5 H                |   1 C                |     2.09877  |     1.11062
    6 H                |   2 C                |     2.09877  |     1.11062
    7 H                |   2 C                |     2.09877  |     1.11062
    8 H                |   3 C                |     2.09877  |     1.11062
    9 H                |   3 C                |     2.09877  |     1.11062
 ------------------------------------------------------------------------------
                         number of included internuclear distances:          9
 ==============================================================================



 ==============================================================================
                                 internuclear angles
 ------------------------------------------------------------------------------
        center 1       |       center 2       |       center 3       |  degrees
 ------------------------------------------------------------------------------
    1 C                |   2 C                |   3 C                |    60.00
    2 C                |   1 C                |   4 H                |   114.40
    2 C                |   1 C                |   5 H                |   114.40
    3 C                |   1 C                |   4 H                |   114.40
    3 C                |   1 C                |   5 H                |   114.40
    4 H                |   1 C                |   5 H                |   123.02
    2 C                |   1 C                |   3 C                |    60.00
    1 C                |   2 C                |   6 H                |   114.40
    1 C                |   2 C                |   7 H                |   114.40
    3 C                |   2 C                |   6 H                |   114.40
    3 C                |   2 C                |   7 H                |   114.40
    6 H                |   2 C                |   7 H                |   123.02
    3 C                |   1 C                |   2 C                |    60.00
    1 C                |   3 C                |   8 H                |   114.40
    1 C                |   3 C                |   9 H                |   114.40
    2 C                |   3 C                |   8 H                |   114.40
    2 C                |   3 C                |   9 H                |   114.40
    8 H                |   3 C                |   9 H                |   123.02
 ------------------------------------------------------------------------------
                            number of included internuclear angles:         18
 ==============================================================================





 Summary of "ao basis" -> "" (spherical)
 ------------------------------------------------------------------------------
       Tag                 Description            Shells   Functions and Types
 ---------------- ------------------------------  ------  ---------------------
 *                           6-311G                   on all atoms 




                           NWChem Geometry Optimization
                           ----------------------------




                               Molecule conformer 0


  no constraints, skipping    0.0000000000000000     
 maximum gradient threshold         (gmax) =   0.000450
 rms gradient threshold             (grms) =   0.000300
 maximum cartesian step threshold   (xmax) =   0.001800
 rms cartesian step threshold       (xrms) =   0.001200
 fixed trust radius                (trust) =   0.300000
 maximum step size to saddle      (sadstp) =   0.100000
 energy precision                  (eprec) =   5.0D-06
 maximum number of steps          (nptopt) =  500
 initial hessian option           (inhess) =    0
 line search option               (linopt) =    1
 hessian update option            (modupd) =    1
 saddle point option              (modsad) =    0
 initial eigen-mode to follow     (moddir) =    0
 initial variable to follow       (vardir) =    0
 follow first negative mode     (firstneg) =    T
 apply conjugacy                    (opcg) =    F
 source of zmatrix                         =   autoz   


          -------------------
          Energy Minimization
          -------------------


 Names of Z-matrix variables 
    1              2              3              4              5         
    6              7              8              9             10         
   11             12             13             14             15         
   16             17             18             19             20         
   21             22             23             24             25         
   26             27             28             29             30         
   31             32             33             34             35         
   36             37             38             39             40         
   41             42             43             44             45         
   46             47             48             49             50         
   51         

 Variables with the same non-blank name are constrained to be equal


 Using diagonal initial Hessian 
 Scaling for Hessian diagonals: bonds = 1.00  angles = 0.25  torsions = 0.10

          --------
          Step   0
          --------


                         Geometry "geometry" -> "geometry"
                         ---------------------------------

 Output coordinates in angstroms (scale by  1.889725989 to convert to a.u.)

  No.       Tag          Charge          X              Y              Z
 ---- ---------------- ---------- -------------- -------------- --------------
    1 C                    6.0000    -0.84598601     0.22668127     0.00000000
    2 C                    6.0000     0.22668127    -0.84598601     0.00000000
    3 C                    6.0000     0.61930474     0.61930474     0.00000000
    4 H                    1.0000    -1.35772101     0.36380025     0.97611651
    5 H                    1.0000    -1.35772101     0.36380025    -0.97611651
    6 H                    1.0000     0.36380025    -1.35772101     0.97611651
    7 H                    1.0000     0.36380025    -1.35772101    -0.97611651
    8 H                    1.0000     0.99392076     0.99392076     0.97611651
    9 H                    1.0000     0.99392076     0.99392076    -0.97611651

      Atomic Mass 
      ----------- 

      C                 12.000000
      H                  1.007825


 Effective nuclear repulsion energy (a.u.)      75.1273932879

            Nuclear Dipole moment (a.u.) 
            ----------------------------
        X                 Y               Z
 ---------------- ---------------- ----------------
     0.0000000000     0.0000000000     0.0000000000

      Symmetry information
      --------------------

 Group name             D3h       
 Group number             27
 Group order              12
 No. of unique centers     2

      Symmetry unique atoms

     1    4


                                 NWChem DFT Module
                                 -----------------


                               Molecule conformer 0


                      Basis "ao basis" -> "ao basis" (spherical)
                      -----
  C (Carbon)
  ----------
            Exponent  Coefficients 
       -------------- ---------------------------------------------------------
  1 S  4.56324000E+03  0.001967
  1 S  6.82024000E+02  0.015231
  1 S  1.54973000E+02  0.076127
  1 S  4.44553000E+01  0.260801
  1 S  1.30290000E+01  0.616462
  1 S  1.82773000E+00  0.221006

  2 S  2.09642000E+01  0.114660
  2 S  4.80331000E+00  0.919999
  2 S  1.45933000E+00 -0.003031

  3 P  2.09642000E+01  0.040249
  3 P  4.80331000E+00  0.237594
  3 P  1.45933000E+00  0.815854

  4 S  4.83456000E-01  1.000000

  5 P  4.83456000E-01  1.000000

  6 S  1.45585000E-01  1.000000

  7 P  1.45585000E-01  1.000000

  H (Hydrogen)
  ------------
            Exponent  Coefficients 
       -------------- ---------------------------------------------------------
  1 S  3.38650000E+01  0.025494
  1 S  5.09479000E+00  0.190373
  1 S  1.15879000E+00  0.852161

  2 S  3.25840000E-01  1.000000

  3 S  1.02741000E-01  1.000000



 Summary of "ao basis" -> "ao basis" (spherical)
 ------------------------------------------------------------------------------
       Tag                 Description            Shells   Functions and Types
 ---------------- ------------------------------  ------  ---------------------
 C                           6-311G                  7       13   4s3p
 H                           6-311G                  3        3   3s




 Summary of "ao basis" -> "ao basis" (spherical)
 ------------------------------------------------------------------------------
       Tag                 Description            Shells   Functions and Types
 ---------------- ------------------------------  ------  ---------------------
 C                           6-311G                  7       13   4s3p
 H                           6-311G                  3        3   3s


      Symmetry analysis of basis
      --------------------------

        a1'        10
        a1"         0
        a2'         3
        a2"         6
        e'         26
        e"         12

  Caching 1-el integrals 
  Rotation of axis 

            General Information
            -------------------
          SCF calculation type: DFT
          Wavefunction type:  closed shell.
          No. of atoms     :     9
          No. of electrons :    24
           Alpha electrons :    12
            Beta electrons :    12
          Charge           :     0
          Spin multiplicity:     1
          Use of symmetry is: on ; symmetry adaption is: on 
          Maximum number of iterations: ***
          This is a Direct SCF calculation.
          AO basis - number of functions:    57
                     number of shells:    39
          Convergence on energy requested:  1.00D-06
          Convergence on density requested:  1.00D-05
          Convergence on gradient requested:  5.00D-04

              XC Information
              --------------
                         B3LYP Method XC Potential
                     Hartree-Fock (Exact) Exchange  0.200          
                        Slater Exchange Functional  0.800 local    
                    Becke 1988 Exchange Functional  0.720 non-local
              Lee-Yang-Parr Correlation Functional  0.810          
                  VWN I RPA Correlation Functional  0.190 local    

             Grid Information
             ----------------
          Grid used for XC integration:  fine      
          Radial quadrature: Mura-Knowles        
          Angular quadrature: Lebedev. 
          Tag              B.-S. Rad. Rad. Pts. Rad. Cut. Ang. Pts.
          ---              ---------- --------- --------- ---------
          C                   0.70       70           8.0       590
          H                   0.35       60          10.0       590
          Grid pruning is: on 
          Number of quadrature shells:   130
          Spatial weights used:  Erf1

          Convergence Information
          -----------------------
          Convergence aids based upon iterative change in 
          total energy or number of iterations. 
          Levelshifting, if invoked, occurs when the 
          HOMO/LUMO gap drops below (HL_TOL):  1.00D-02
          DIIS, if invoked, will attempt to extrapolate 
          using up to (NFOCK): 10 stored Fock matrices.

                    Damping( 0%)  Levelshifting(0.5)       DIIS
                  --------------- ------------------- ---------------
          dE  on:    start            ASAP                start   
          dE off:    2 iters        *** iters           *** iters 


      Screening Tolerance Information
      -------------------------------
          Density screening/tol_rho:  1.00D-10
          AO Gaussian exp screening on grid/accAOfunc:  14
          CD Gaussian exp screening on grid/accCDfunc:  20
          XC Gaussian exp screening on grid/accXCfunc:  20
          Schwarz screening/accCoul:  1.00D-08

          Performing ZORA calculations
          ----------------------------


      Superposition of Atomic Density Guess
      -------------------------------------

 Sum of atomic energies:        -116.00451404

 Read atomic ZORA corrections from ./C1CC1_mol_7_conformer_0.zora_sf

 dft_zora_read: failed to open./C1CC1_mol_7_conformer_0.zora_sf
 Forcing recalculation of ZORA corrections
       Generating atomic ZORA corrections
       ----------------------------------

 In dft_scf:: zora:Knucl= F

 Grid_pts file          = ./C1CC1_mol_7_conformer_0.gridpts.00
 Record size in doubles =  12289        No. of grid_pts per rec  =   3070
 Max. records in memory =      2        Max. recs in file   =     13608

 Grid integrated density:      23.999995901403
 Requested integration accuracy:   0.10E-06

 Wrote atomic ZORA corrections to ./C1CC1_mol_7_conformer_0.zora_sf


      Superposition of Atomic Density Guess
      -------------------------------------

 Sum of atomic energies:        -116.00451404

      Non-variational initial energy
      ------------------------------

 Total energy =    -118.136784
 1-e energy   =    -302.451609
 2-e energy   =     109.187431
 HOMO         =      -0.346973
 LUMO         =       0.077795


      Symmetry analysis of molecular orbitals - initial
      -------------------------------------------------

  Numbering of irreducible representations: 

     1 a1'         2 a1"         3 a2'         4 a2"         5 e'      
     6 e"      

  Orbital symmetries:

     1 a1'         2 e'          3 e'          4 a1'         5 e'      
     6 e'          7 a2"         8 a1'         9 e"         10 e"      
    11 e'         12 e'         13 a1'        14 a2"        15 e'      
    16 e'         17 a2'        18 e"         19 e"         20 e'      
    21 e'         22 a1'     

   Time after variat. SCF:      4.1
   Time prior to 1st pass:      4.1

           Memory utilization after 1st SCF pass: 
           Heap Space remaining (MW):      131.04           131041578
          Stack Space remaining (MW):      131.06           131064900

   convergence    iter        energy       DeltaE   RMS-Dens  Diis-err    time
 ---------------- ----- ----------------- --------- --------- ---------  ------
 d= 0,ls=0.0,diis     1   -117.9144581227 -1.93D+02  6.25D-03  4.05D-01     5.7
 d= 0,ls=0.0,diis     2   -117.9476942070 -3.32D-02  1.02D-03  1.72D-03     6.9
 d= 0,ls=0.0,diis     3   -117.9478906509 -1.96D-04  2.23D-04  2.03D-04     8.3
 d= 0,ls=0.0,diis     4   -117.9479017136 -1.11D-05  1.22D-04  1.07D-04     9.6
 d= 0,ls=0.0,diis     5   -117.9479160076 -1.43D-05  6.39D-06  6.33D-08    10.9
 d= 0,ls=0.0,diis     6   -117.9479160168 -9.26D-09  1.09D-06  7.72D-10    12.3
(nogshift,skip_gshiftAOev,done_Fji)=( 1,F,F)


         Total DFT energy =     -117.947916016825
      One electron energy =     -305.642329332613
           Coulomb energy =      131.051418339729
    Exchange-Corr. energy =      -18.484398311836
 Nuclear repulsion energy =       75.127393287895

       Scaling correction =        0.026258089603

 Numeric. integr. density =       23.999998103202

     Total iterative time =      8.3s



                  Occupations of the irreducible representations
                  ----------------------------------------------

                     irrep           alpha         beta
                     --------     --------     --------
                     a1'               3.0          3.0
                     a1"               0.0          0.0
                     a2'               0.0          0.0
                     a2"               1.0          1.0
                     e'                6.0          6.0
                     e"                2.0          2.0


 center of mass
 --------------
 x =  -0.00000000 y =   0.00000000 z =   0.00000000

 moments of inertia (a.u.)
 ------------------
          91.214223482474          -0.000000000000           0.000000000000
          -0.000000000000          91.214223482474           0.000000000000
           0.000000000000           0.000000000000         141.278681440872

            General Information
            -------------------
          SCF calculation type: DFT
          Wavefunction type:  closed shell.
          No. of atoms     :     9
          No. of electrons :    24
           Alpha electrons :    12
            Beta electrons :    12
          Charge           :     0
          Spin multiplicity:     1
          Use of symmetry is: on ; symmetry adaption is: on 
          Maximum number of iterations: ***
          This is a Direct SCF calculation.
          AO basis - number of functions:    57
                     number of shells:    39
          Convergence on energy requested:  1.00D-06
          Convergence on density requested:  1.00D-05
          Convergence on gradient requested:  5.00D-04

              XC Information
              --------------
                         B3LYP Method XC Potential
                     Hartree-Fock (Exact) Exchange  0.200          
                        Slater Exchange Functional  0.800 local    
                    Becke 1988 Exchange Functional  0.720 non-local
              Lee-Yang-Parr Correlation Functional  0.810          
                  VWN I RPA Correlation Functional  0.190 local    

             Grid Information
             ----------------
          Grid used for XC integration:  fine      
          Radial quadrature: Mura-Knowles        
          Angular quadrature: Lebedev. 
          Tag              B.-S. Rad. Rad. Pts. Rad. Cut. Ang. Pts.
          ---              ---------- --------- --------- ---------
          C                   0.70       70           8.0       590
          H                   0.35       60          10.0       590
          Grid pruning is: on 
          Number of quadrature shells:   130
          Spatial weights used:  Erf1

          Convergence Information
          -----------------------
          Convergence aids based upon iterative change in 
          total energy or number of iterations. 
          Levelshifting, if invoked, occurs when the 
          HOMO/LUMO gap drops below (HL_TOL):  1.00D-02
          DIIS, if invoked, will attempt to extrapolate 
          using up to (NFOCK): 10 stored Fock matrices.

                    Damping( 0%)  Levelshifting(0.5)       DIIS
                  --------------- ------------------- ---------------
          dE  on:    start            ASAP                start   
          dE off:    2 iters        *** iters           *** iters 


      Screening Tolerance Information
      -------------------------------
          Density screening/tol_rho:  1.00D-10
          AO Gaussian exp screening on grid/accAOfunc:  14
          CD Gaussian exp screening on grid/accCDfunc:  20
          XC Gaussian exp screening on grid/accXCfunc:  20
          Schwarz screening/accCoul:  1.00D-08



                            NWChem DFT Gradient Module
                            --------------------------


                               Molecule conformer 0



  charge          =   0.00
  wavefunction    = closed shell

  Rotation of axis 
  Using symmetry


                         DFT ENERGY GRADIENTS

    atom               coordinates                        gradient
                 x          y          z           x          y          z
   1 C      -1.598682   0.428365   0.000000    0.006801  -0.001822   0.000000
   2 C       0.428365  -1.598682   0.000000   -0.001822   0.006801  -0.000000
   3 C       1.170316   1.170316   0.000000   -0.004979  -0.004979   0.000000
   4 H      -2.565721   0.687483   1.844593    0.002108  -0.000565   0.023881
   5 H      -2.565721   0.687483  -1.844593    0.002108  -0.000565  -0.023881
   6 H       0.687483  -2.565721   1.844593   -0.000565   0.002108   0.023881
   7 H       0.687483  -2.565721  -1.844593   -0.000565   0.002108  -0.023881
   8 H       1.878238   1.878238   1.844593   -0.001543  -0.001543   0.023881
   9 H       1.878238   1.878238  -1.844593   -0.001543  -0.001543  -0.023881

                 ----------------------------------------
                 |  Time  |  1-e(secs)   |  2-e(secs)   |
                 ----------------------------------------
                 |  CPU   |       0.00   |       0.02   |
                 ----------------------------------------
                 |  WALL  |       0.00   |       0.02   |
                 ----------------------------------------
  no constraints, skipping    0.0000000000000000     

@ Step       Energy      Delta E   Gmax     Grms     Xrms     Xmax   Walltime
@ ---- ---------------- -------- -------- -------- -------- -------- --------
@    0    -117.94791602  0.0D+00  0.01995  0.00735  0.00000  0.00000     13.4
                                                                    



                                Z-matrix (autoz)
                                -------- 

 Units are Angstrom for bonds and degrees for angles

      Type          Name      I     J     K     L     M      Value     Gradient
      ----------- --------  ----- ----- ----- ----- ----- ---------- ----------
    1 Stretch                  1     2                       1.51698   -0.00658
    2 Stretch                  1     3                       1.51698   -0.00658
    3 Stretch                  1     4                       1.11062    0.01995
    4 Stretch                  1     5                       1.11062    0.01995
    5 Stretch                  2     3                       1.51698   -0.00658
    6 Stretch                  2     6                       1.11062    0.01995
    7 Stretch                  2     7                       1.11062    0.01995
    8 Stretch                  3     8                       1.11062    0.01995
    9 Stretch                  3     9                       1.11062    0.01995
   10 Bend                     1     2     3                60.00000   -0.00000
   11 Bend                     1     2     6               114.40039   -0.00221
   12 Bend                     1     2     7               114.40039   -0.00221
   13 Bend                     1     3     2                60.00000    0.00000
   14 Bend                     1     3     8               114.40039   -0.00221
   15 Bend                     1     3     9               114.40039   -0.00221
   16 Bend                     2     1     3                60.00000   -0.00000
   17 Bend                     2     1     4               114.40039   -0.00221
   18 Bend                     2     1     5               114.40039   -0.00221
   19 Bend                     2     3     8               114.40039   -0.00221
   20 Bend                     2     3     9               114.40039   -0.00221
   21 Bend                     3     1     4               114.40039   -0.00221
   22 Bend                     3     1     5               114.40039   -0.00221
   23 Bend                     3     2     6               114.40039   -0.00221
   24 Bend                     3     2     7               114.40039   -0.00221
   25 Bend                     4     1     5               123.01822    0.00530
   26 Bend                     6     2     7               123.01822    0.00530
   27 Bend                     8     3     9               123.01822    0.00530
   28 Torsion                  1     2     3     8         105.18297   -0.00160
   29 Torsion                  1     2     3     9        -105.18297    0.00160
   30 Torsion                  1     3     2     6        -105.18297    0.00160
   31 Torsion                  1     3     2     7         105.18297   -0.00160
   32 Torsion                  2     1     3     8        -105.18297    0.00160
   33 Torsion                  2     1     3     9         105.18297   -0.00160
   34 Torsion                  2     3     1     4         105.18297   -0.00160
   35 Torsion                  2     3     1     5        -105.18297    0.00160
   36 Torsion                  3     1     2     6         105.18297   -0.00160
   37 Torsion                  3     1     2     7        -105.18297    0.00160
   38 Torsion                  3     2     1     4        -105.18297    0.00160
   39 Torsion                  3     2     1     5         105.18297   -0.00160
   40 Torsion                  4     1     2     6           0.00000    0.00000
   41 Torsion                  4     1     2     7         149.63405    0.00320
   42 Torsion                  4     1     3     8          -0.00000   -0.00000
   43 Torsion                  4     1     3     9        -149.63405   -0.00320
   44 Torsion                  5     1     2     6        -149.63405   -0.00320
   45 Torsion                  5     1     2     7          -0.00000   -0.00000
   46 Torsion                  5     1     3     8         149.63405    0.00320
   47 Torsion                  5     1     3     9           0.00000    0.00000
   48 Torsion                  6     2     3     8           0.00000    0.00000
   49 Torsion                  6     2     3     9         149.63405    0.00320
   50 Torsion                  7     2     3     8        -149.63405   -0.00320
   51 Torsion                  7     2     3     9          -0.00000   -0.00000

 Restricting large step in mode   11 eval= 4.4D-02 step=-3.5D-01 new=-3.0D-01
  no constraints, skipping    0.0000000000000000     
  no constraints, skipping    0.0000000000000000     
  no constraints, skipping    0.0000000000000000     
  no constraints, skipping    0.0000000000000000     
  no constraints, skipping    0.0000000000000000     
  no constraints, skipping    0.0000000000000000     
  no constraints, skipping    0.0000000000000000     
  no constraints, skipping    0.0000000000000000     

                                 NWChem DFT Module
                                 -----------------


                               Molecule conformer 0




 Summary of "ao basis" -> "ao basis" (spherical)
 ------------------------------------------------------------------------------
       Tag                 Description            Shells   Functions and Types
 ---------------- ------------------------------  ------  ---------------------
 C                           6-311G                  7       13   4s3p
 H                           6-311G                  3        3   3s


      Symmetry analysis of basis
      --------------------------

        a1'        10
        a1"         0
        a2'         3
        a2"         6
        e'         26
        e"         12

  Caching 1-el integrals 
  Rotation of axis 

            General Information
            -------------------
          SCF calculation type: DFT
          Wavefunction type:  closed shell.
          No. of atoms     :     9
          No. of electrons :    24
           Alpha electrons :    12
            Beta electrons :    12
          Charge           :     0
          Spin multiplicity:     1
          Use of symmetry is: on ; symmetry adaption is: on 
          Maximum number of iterations: ***
          This is a Direct SCF calculation.
          AO basis - number of functions:    57
                     number of shells:    39
          Convergence on energy requested:  1.00D-06
          Convergence on density requested:  1.00D-05
          Convergence on gradient requested:  5.00D-04

              XC Information
              --------------
                         B3LYP Method XC Potential
                     Hartree-Fock (Exact) Exchange  0.200          
                        Slater Exchange Functional  0.800 local    
                    Becke 1988 Exchange Functional  0.720 non-local
              Lee-Yang-Parr Correlation Functional  0.810          
                  VWN I RPA Correlation Functional  0.190 local    

             Grid Information
             ----------------
          Grid used for XC integration:  fine      
          Radial quadrature: Mura-Knowles        
          Angular quadrature: Lebedev. 
          Tag              B.-S. Rad. Rad. Pts. Rad. Cut. Ang. Pts.
          ---              ---------- --------- --------- ---------
          C                   0.70       70           8.0       590
          H                   0.35       60          10.0       590
          Grid pruning is: on 
          Number of quadrature shells:   130
          Spatial weights used:  Erf1

          Convergence Information
          -----------------------
          Convergence aids based upon iterative change in 
          total energy or number of iterations. 
          Levelshifting, if invoked, occurs when the 
          HOMO/LUMO gap drops below (HL_TOL):  1.00D-02
          DIIS, if invoked, will attempt to extrapolate 
          using up to (NFOCK): 10 stored Fock matrices.

                    Damping( 0%)  Levelshifting(0.5)       DIIS
                  --------------- ------------------- ---------------
          dE  on:    start            ASAP                start   
          dE off:    2 iters        *** iters           *** iters 


      Screening Tolerance Information
      -------------------------------
          Density screening/tol_rho:  1.00D-10
          AO Gaussian exp screening on grid/accAOfunc:  14
          CD Gaussian exp screening on grid/accCDfunc:  20
          XC Gaussian exp screening on grid/accXCfunc:  20
          Schwarz screening/accCoul:  1.00D-08

          Performing ZORA calculations
          ----------------------------


      Superposition of Atomic Density Guess
      -------------------------------------

 Sum of atomic energies:        -116.00451404

 Read atomic ZORA corrections from ./C1CC1_mol_7_conformer_0.zora_sf

 Forcing recalculation of ZORA corrections
       Generating atomic ZORA corrections
       ----------------------------------

 In dft_scf:: zora:Knucl= F

 Grid_pts file          = ./C1CC1_mol_7_conformer_0.gridpts.00
 Record size in doubles =  12289        No. of grid_pts per rec  =   3070
 Max. records in memory =      2        Max. recs in file   =     13608

 Grid integrated density:      23.999997150278
 Requested integration accuracy:   0.10E-06

 Wrote atomic ZORA corrections to ./C1CC1_mol_7_conformer_0.zora_sf


 Loading old vectors from job with title :

Molecule conformer 0


      Symmetry analysis of molecular orbitals - initial
      -------------------------------------------------

  Numbering of irreducible representations: 

     1 a1'         2 a1"         3 a2'         4 a2"         5 e'      
     6 e"      

  Orbital symmetries:

     1 a1'         2 e'          3 e'          4 a1'         5 e'      
     6 e'          7 a2"         8 a1'         9 e"         10 e"      
    11 e'         12 e'         13 a1'        14 a2"        15 e'      
    16 e'         17 a2'        18 e"         19 e"         20 e'      
    21 e'         22 a1'     

   Time after variat. SCF:     18.8
   Time prior to 1st pass:     18.8

           Memory utilization after 1st SCF pass: 
           Heap Space remaining (MW):      131.04           131041578
          Stack Space remaining (MW):      131.06           131064900

   convergence    iter        energy       DeltaE   RMS-Dens  Diis-err    time
 ---------------- ----- ----------------- --------- --------- ---------  ------
 d= 0,ls=0.0,diis     1   -117.9542553330 -1.93D+02  2.09D-03  9.49D-03    20.2
 d= 0,ls=0.0,diis     2   -117.9552608677 -1.01D-03  6.67D-04  1.73D-03    21.5
 d= 0,ls=0.0,diis     3   -117.9553902507 -1.29D-04  3.17D-04  7.56D-04    22.4
 d= 0,ls=0.0,diis     4   -117.9554886821 -9.84D-05  3.53D-05  1.30D-06    23.5
 d= 0,ls=0.0,diis     5   -117.9554888685 -1.86D-07  2.24D-06  1.21D-08    24.9
(nogshift,skip_gshiftAOev,done_Fji)=( 1,F,F)


         Total DFT energy =     -117.955488868509
      One electron energy =     -306.233426115501
           Coulomb energy =      131.375995781831
    Exchange-Corr. energy =      -18.541918966696
 Nuclear repulsion energy =       75.443860431857

       Scaling correction =        0.026245400404

 Numeric. integr. density =       23.999999136630

     Total iterative time =      6.1s



                  Occupations of the irreducible representations
                  ----------------------------------------------

                     irrep           alpha         beta
                     --------     --------     --------
                     a1'               3.0          3.0
                     a1"               0.0          0.0
                     a2'               0.0          0.0
                     a2"               1.0          1.0
                     e'                6.0          6.0
                     e"                2.0          2.0


 center of mass
 --------------
 x =  -0.00000000 y =  -0.00000000 z =   0.00000000

 moments of inertia (a.u.)
 ------------------
          90.559373352551           0.000000000000           0.000000000000
           0.000000000000          90.559373352551           0.000000000000
           0.000000000000           0.000000000000         143.458529153527
 Line search: 
     step= 1.00 grad=-1.2D-02 hess= 4.5D-03 energy=   -117.955489 mode=downhill
 new step= 1.33                   predicted energy=   -117.955993
  no constraints, skipping    0.0000000000000000     
  no constraints, skipping    0.0000000000000000     
  no constraints, skipping    0.0000000000000000     
  no constraints, skipping    0.0000000000000000     
  no constraints, skipping    0.0000000000000000     
  no constraints, skipping    0.0000000000000000     
  no constraints, skipping    0.0000000000000000     
  no constraints, skipping    0.0000000000000000     

          --------
          Step   1
          --------


                         Geometry "geometry" -> "geometry"
                         ---------------------------------

 Output coordinates in angstroms (scale by  1.889725989 to convert to a.u.)

  No.       Tag          Charge          X              Y              Z
 ---- ---------------- ---------- -------------- -------------- --------------
    1 C                    6.0000    -0.85286358     0.22852411     0.00000000
    2 C                    6.0000     0.22852411    -0.85286358     0.00000000
    3 C                    6.0000     0.62433947     0.62433947     0.00000000
    4 H                    1.0000    -1.37779364     0.36917869     0.91979032
    5 H                    1.0000    -1.37779364     0.36917869    -0.91979032
    6 H                    1.0000     0.36917869    -1.37779364     0.91979032
    7 H                    1.0000     0.36917869    -1.37779364    -0.91979032
    8 H                    1.0000     1.00861495     1.00861495     0.91979032
    9 H                    1.0000     1.00861495     1.00861495    -0.91979032

      Atomic Mass 
      ----------- 

      C                 12.000000
      H                  1.007825


 Effective nuclear repulsion energy (a.u.)      75.5588894539

            Nuclear Dipole moment (a.u.) 
            ----------------------------
        X                 Y               Z
 ---------------- ---------------- ----------------
     0.0000000000     0.0000000000     0.0000000000

      Symmetry information
      --------------------

 Group name             D3h       
 Group number             27
 Group order              12
 No. of unique centers     2

      Symmetry unique atoms

     1    4


                                 NWChem DFT Module
                                 -----------------


                               Molecule conformer 0




 Summary of "ao basis" -> "ao basis" (spherical)
 ------------------------------------------------------------------------------
       Tag                 Description            Shells   Functions and Types
 ---------------- ------------------------------  ------  ---------------------
 C                           6-311G                  7       13   4s3p
 H                           6-311G                  3        3   3s


      Symmetry analysis of basis
      --------------------------

        a1'        10
        a1"         0
        a2'         3
        a2"         6
        e'         26
        e"         12

  Caching 1-el integrals 
  Rotation of axis 

            General Information
            -------------------
          SCF calculation type: DFT
          Wavefunction type:  closed shell.
          No. of atoms     :     9
          No. of electrons :    24
           Alpha electrons :    12
            Beta electrons :    12
          Charge           :     0
          Spin multiplicity:     1
          Use of symmetry is: on ; symmetry adaption is: on 
          Maximum number of iterations: ***
          This is a Direct SCF calculation.
          AO basis - number of functions:    57
                     number of shells:    39
          Convergence on energy requested:  1.00D-06
          Convergence on density requested:  1.00D-05
          Convergence on gradient requested:  5.00D-04

              XC Information
              --------------
                         B3LYP Method XC Potential
                     Hartree-Fock (Exact) Exchange  0.200          
                        Slater Exchange Functional  0.800 local    
                    Becke 1988 Exchange Functional  0.720 non-local
              Lee-Yang-Parr Correlation Functional  0.810          
                  VWN I RPA Correlation Functional  0.190 local    

             Grid Information
             ----------------
          Grid used for XC integration:  fine      
          Radial quadrature: Mura-Knowles        
          Angular quadrature: Lebedev. 
          Tag              B.-S. Rad. Rad. Pts. Rad. Cut. Ang. Pts.
          ---              ---------- --------- --------- ---------
          C                   0.70       70           8.0       590
          H                   0.35       60          10.0       590
          Grid pruning is: on 
          Number of quadrature shells:   130
          Spatial weights used:  Erf1

          Convergence Information
          -----------------------
          Convergence aids based upon iterative change in 
          total energy or number of iterations. 
          Levelshifting, if invoked, occurs when the 
          HOMO/LUMO gap drops below (HL_TOL):  1.00D-02
          DIIS, if invoked, will attempt to extrapolate 
          using up to (NFOCK): 10 stored Fock matrices.

                    Damping( 0%)  Levelshifting(0.5)       DIIS
                  --------------- ------------------- ---------------
          dE  on:    start            ASAP                start   
          dE off:    2 iters        *** iters           *** iters 


      Screening Tolerance Information
      -------------------------------
          Density screening/tol_rho:  1.00D-10
          AO Gaussian exp screening on grid/accAOfunc:  14
          CD Gaussian exp screening on grid/accCDfunc:  20
          XC Gaussian exp screening on grid/accXCfunc:  20
          Schwarz screening/accCoul:  1.00D-08

          Performing ZORA calculations
          ----------------------------


      Superposition of Atomic Density Guess
      -------------------------------------

 Sum of atomic energies:        -116.00451404

 Read atomic ZORA corrections from ./C1CC1_mol_7_conformer_0.zora_sf

 Forcing recalculation of ZORA corrections
       Generating atomic ZORA corrections
       ----------------------------------

 In dft_scf:: zora:Knucl= F

 Grid_pts file          = ./C1CC1_mol_7_conformer_0.gridpts.00
 Record size in doubles =  12289        No. of grid_pts per rec  =   3070
 Max. records in memory =      2        Max. recs in file   =     13608

 Grid integrated density:      23.999997013321
 Requested integration accuracy:   0.10E-06

 Wrote atomic ZORA corrections to ./C1CC1_mol_7_conformer_0.zora_sf


 Loading old vectors from job with title :

Molecule conformer 0


      Symmetry analysis of molecular orbitals - initial
      -------------------------------------------------

  Numbering of irreducible representations: 

     1 a1'         2 a1"         3 a2'         4 a2"         5 e'      
     6 e"      

  Orbital symmetries:

     1 a1'         2 e'          3 e'          4 a1'         5 e'      
     6 e'          7 a2"         8 a1'         9 e"         10 e"      
    11 e'         12 e'         13 a1'        14 a2"        15 e'      
    16 e'         17 a2'        18 e"         19 e"         20 e'      
    21 e'         22 a1'     

   Time after variat. SCF:     30.7
   Time prior to 1st pass:     30.7

           Memory utilization after 1st SCF pass: 
           Heap Space remaining (MW):      131.04           131041578
          Stack Space remaining (MW):      131.06           131064900

   convergence    iter        energy       DeltaE   RMS-Dens  Diis-err    time
 ---------------- ----- ----------------- --------- --------- ---------  ------
 d= 0,ls=0.0,diis     1   -117.9557036876 -1.94D+02  6.80D-04  1.11D-03    31.5
 d= 0,ls=0.0,diis     2   -117.9558199608 -1.16D-04  2.21D-04  1.92D-04    32.7
 d= 0,ls=0.0,diis     3   -117.9558342601 -1.43D-05  1.07D-04  8.43D-05    34.0
 d= 0,ls=0.0,diis     4   -117.9558451952 -1.09D-05  1.19D-05  1.59D-07    35.1
 d= 0,ls=0.0,diis     5   -117.9558452180 -2.27D-08  7.63D-07  1.35D-09    36.4
(nogshift,skip_gshiftAOev,done_Fji)=( 1,F,F)


         Total DFT energy =     -117.955845217981
      One electron energy =     -306.444223576935
           Coulomb energy =      131.491361332490
    Exchange-Corr. energy =      -18.561872427403
 Nuclear repulsion energy =       75.558889453867

       Scaling correction =        0.026237094982

 Numeric. integr. density =       23.999999302677

     Total iterative time =      5.8s



                  Occupations of the irreducible representations
                  ----------------------------------------------

                     irrep           alpha         beta
                     --------     --------     --------
                     a1'               3.0          3.0
                     a1"               0.0          0.0
                     a2'               0.0          0.0
                     a2"               1.0          1.0
                     e'                6.0          6.0
                     e"                2.0          2.0


 center of mass
 --------------
 x =   0.00000000 y =   0.00000000 z =   0.00000000

 moments of inertia (a.u.)
 ------------------
          90.348587393950          -0.000000000000           0.000000000000
          -0.000000000000          90.348587393950           0.000000000000
           0.000000000000           0.000000000000         144.159432096187

            General Information
            -------------------
          SCF calculation type: DFT
          Wavefunction type:  closed shell.
          No. of atoms     :     9
          No. of electrons :    24
           Alpha electrons :    12
            Beta electrons :    12
          Charge           :     0
          Spin multiplicity:     1
          Use of symmetry is: on ; symmetry adaption is: on 
          Maximum number of iterations: ***
          This is a Direct SCF calculation.
          AO basis - number of functions:    57
                     number of shells:    39
          Convergence on energy requested:  1.00D-06
          Convergence on density requested:  1.00D-05
          Convergence on gradient requested:  5.00D-04

              XC Information
              --------------
                         B3LYP Method XC Potential
                     Hartree-Fock (Exact) Exchange  0.200          
                        Slater Exchange Functional  0.800 local    
                    Becke 1988 Exchange Functional  0.720 non-local
              Lee-Yang-Parr Correlation Functional  0.810          
                  VWN I RPA Correlation Functional  0.190 local    

             Grid Information
             ----------------
          Grid used for XC integration:  fine      
          Radial quadrature: Mura-Knowles        
          Angular quadrature: Lebedev. 
          Tag              B.-S. Rad. Rad. Pts. Rad. Cut. Ang. Pts.
          ---              ---------- --------- --------- ---------
          C                   0.70       70           8.0       590
          H                   0.35       60          10.0       590
          Grid pruning is: on 
          Number of quadrature shells:   130
          Spatial weights used:  Erf1

          Convergence Information
          -----------------------
          Convergence aids based upon iterative change in 
          total energy or number of iterations. 
          Levelshifting, if invoked, occurs when the 
          HOMO/LUMO gap drops below (HL_TOL):  1.00D-02
          DIIS, if invoked, will attempt to extrapolate 
          using up to (NFOCK): 10 stored Fock matrices.

                    Damping( 0%)  Levelshifting(0.5)       DIIS
                  --------------- ------------------- ---------------
          dE  on:    start            ASAP                start   
          dE off:    2 iters        *** iters           *** iters 


      Screening Tolerance Information
      -------------------------------
          Density screening/tol_rho:  1.00D-10
          AO Gaussian exp screening on grid/accAOfunc:  14
          CD Gaussian exp screening on grid/accCDfunc:  20
          XC Gaussian exp screening on grid/accXCfunc:  20
          Schwarz screening/accCoul:  1.00D-08



                            NWChem DFT Gradient Module
                            --------------------------


                               Molecule conformer 0



  charge          =   0.00
  wavefunction    = closed shell

  Rotation of axis 
  Using symmetry


                         DFT ENERGY GRADIENTS

    atom               coordinates                        gradient
                 x          y          z           x          y          z
   1 C      -1.611678   0.431848   0.000000   -0.022168   0.005940   0.000000
   2 C       0.431848  -1.611678   0.000000    0.005940  -0.022168   0.000000
   3 C       1.179831   1.179831   0.000000    0.016228   0.016228   0.000000
   4 H      -2.603652   0.697647   1.738152    0.009181  -0.002460  -0.003186
   5 H      -2.603652   0.697647  -1.738152    0.009181  -0.002460   0.003186
   6 H       0.697647  -2.603652   1.738152   -0.002460   0.009181  -0.003186
   7 H       0.697647  -2.603652  -1.738152   -0.002460   0.009181   0.003186
   8 H       1.906006   1.906006   1.738152   -0.006721  -0.006721  -0.003186
   9 H       1.906006   1.906006  -1.738152   -0.006721  -0.006721   0.003186

                 ----------------------------------------
                 |  Time  |  1-e(secs)   |  2-e(secs)   |
                 ----------------------------------------
                 |  CPU   |       0.00   |       0.02   |
                 ----------------------------------------
                 |  WALL  |       0.00   |       0.02   |
                 ----------------------------------------
  no constraints, skipping    0.0000000000000000     

  Step       Energy      Delta E   Gmax     Grms     Xrms     Xmax   Walltime
  ---- ---------------- -------- -------- -------- -------- -------- --------
@    1    -117.95584522 -7.9D-03  0.00758  0.00284  0.05330  0.10623     37.4
                                                                    



                                Z-matrix (autoz)
                                -------- 

 Units are Angstrom for bonds and degrees for angles

      Type          Name      I     J     K     L     M      Value     Gradient
      ----------- --------  ----- ----- ----- ----- ----- ---------- ----------
    1 Stretch                  1     2                       1.52931    0.00227
    2 Stretch                  1     3                       1.52931    0.00227
    3 Stretch                  1     4                       1.06834   -0.00758
    4 Stretch                  1     5                       1.06834   -0.00758
    5 Stretch                  2     3                       1.52931    0.00227
    6 Stretch                  2     6                       1.06834   -0.00758
    7 Stretch                  2     7                       1.06834   -0.00758
    8 Stretch                  3     8                       1.06834   -0.00758
    9 Stretch                  3     9                       1.06834   -0.00758
   10 Bend                     1     2     3                60.00000   -0.00000
   11 Bend                     1     2     6               116.13793   -0.00102
   12 Bend                     1     2     7               116.13793   -0.00102
   13 Bend                     1     3     2                60.00000    0.00000
   14 Bend                     1     3     8               116.13793   -0.00102
   15 Bend                     1     3     9               116.13793   -0.00102
   16 Bend                     2     1     3                60.00000   -0.00000
   17 Bend                     2     1     4               116.13793   -0.00102
   18 Bend                     2     1     5               116.13793   -0.00102
   19 Bend                     2     3     8               116.13793   -0.00102
   20 Bend                     2     3     9               116.13793   -0.00102
   21 Bend                     3     1     4               116.13793   -0.00102
   22 Bend                     3     1     5               116.13793   -0.00102
   23 Bend                     3     2     6               116.13793   -0.00102
   24 Bend                     3     2     7               116.13793   -0.00102
   25 Bend                     4     1     5               118.84754    0.00246
   26 Bend                     6     2     7               118.84754    0.00246
   27 Bend                     8     3     9               118.84754    0.00246
   28 Torsion                  1     2     3     8         106.45816   -0.00076
   29 Torsion                  1     2     3     9        -106.45816    0.00076
   30 Torsion                  1     3     2     6        -106.45816    0.00076
   31 Torsion                  1     3     2     7         106.45816   -0.00076
   32 Torsion                  2     1     3     8        -106.45816    0.00076
   33 Torsion                  2     1     3     9         106.45816   -0.00076
   34 Torsion                  2     3     1     4         106.45816   -0.00076
   35 Torsion                  2     3     1     5        -106.45816    0.00076
   36 Torsion                  3     1     2     6         106.45816   -0.00076
   37 Torsion                  3     1     2     7        -106.45816    0.00076
   38 Torsion                  3     2     1     4        -106.45816    0.00076
   39 Torsion                  3     2     1     5         106.45816   -0.00076
   40 Torsion                  4     1     2     6          -0.00000   -0.00000
   41 Torsion                  4     1     2     7         147.08369    0.00153
   42 Torsion                  4     1     3     8           0.00000   -0.00000
   43 Torsion                  4     1     3     9        -147.08369   -0.00153
   44 Torsion                  5     1     2     6        -147.08369   -0.00153
   45 Torsion                  5     1     2     7           0.00000    0.00000
   46 Torsion                  5     1     3     8         147.08369    0.00153
   47 Torsion                  5     1     3     9           0.00000    0.00000
   48 Torsion                  6     2     3     8          -0.00000    0.00000
   49 Torsion                  6     2     3     9         147.08369    0.00153
   50 Torsion                  7     2     3     8        -147.08369   -0.00153
   51 Torsion                  7     2     3     9           0.00000   -0.00000

  no constraints, skipping    0.0000000000000000     
  no constraints, skipping    0.0000000000000000     
  no constraints, skipping    0.0000000000000000     
  no constraints, skipping    0.0000000000000000     
  no constraints, skipping    0.0000000000000000     
  no constraints, skipping    0.0000000000000000     
  no constraints, skipping    0.0000000000000000     
  no constraints, skipping    0.0000000000000000     

                                 NWChem DFT Module
                                 -----------------


                               Molecule conformer 0




 Summary of "ao basis" -> "ao basis" (spherical)
 ------------------------------------------------------------------------------
       Tag                 Description            Shells   Functions and Types
 ---------------- ------------------------------  ------  ---------------------
 C                           6-311G                  7       13   4s3p
 H                           6-311G                  3        3   3s


      Symmetry analysis of basis
      --------------------------

        a1'        10
        a1"         0
        a2'         3
        a2"         6
        e'         26
        e"         12

  Caching 1-el integrals 
  Rotation of axis 

            General Information
            -------------------
          SCF calculation type: DFT
          Wavefunction type:  closed shell.
          No. of atoms     :     9
          No. of electrons :    24
           Alpha electrons :    12
            Beta electrons :    12
          Charge           :     0
          Spin multiplicity:     1
          Use of symmetry is: on ; symmetry adaption is: on 
          Maximum number of iterations: ***
          This is a Direct SCF calculation.
          AO basis - number of functions:    57
                     number of shells:    39
          Convergence on energy requested:  1.00D-06
          Convergence on density requested:  1.00D-05
          Convergence on gradient requested:  5.00D-04

              XC Information
              --------------
                         B3LYP Method XC Potential
                     Hartree-Fock (Exact) Exchange  0.200          
                        Slater Exchange Functional  0.800 local    
                    Becke 1988 Exchange Functional  0.720 non-local
              Lee-Yang-Parr Correlation Functional  0.810          
                  VWN I RPA Correlation Functional  0.190 local    

             Grid Information
             ----------------
          Grid used for XC integration:  fine      
          Radial quadrature: Mura-Knowles        
          Angular quadrature: Lebedev. 
          Tag              B.-S. Rad. Rad. Pts. Rad. Cut. Ang. Pts.
          ---              ---------- --------- --------- ---------
          C                   0.70       70           8.0       590
          H                   0.35       60          10.0       590
          Grid pruning is: on 
          Number of quadrature shells:   130
          Spatial weights used:  Erf1

          Convergence Information
          -----------------------
          Convergence aids based upon iterative change in 
          total energy or number of iterations. 
          Levelshifting, if invoked, occurs when the 
          HOMO/LUMO gap drops below (HL_TOL):  1.00D-02
          DIIS, if invoked, will attempt to extrapolate 
          using up to (NFOCK): 10 stored Fock matrices.

                    Damping( 0%)  Levelshifting(0.5)       DIIS
                  --------------- ------------------- ---------------
          dE  on:    start            ASAP                start   
          dE off:    2 iters        *** iters           *** iters 


      Screening Tolerance Information
      -------------------------------
          Density screening/tol_rho:  1.00D-10
          AO Gaussian exp screening on grid/accAOfunc:  14
          CD Gaussian exp screening on grid/accCDfunc:  20
          XC Gaussian exp screening on grid/accXCfunc:  20
          Schwarz screening/accCoul:  1.00D-08

          Performing ZORA calculations
          ----------------------------


      Superposition of Atomic Density Guess
      -------------------------------------

 Sum of atomic energies:        -116.00451404

 Read atomic ZORA corrections from ./C1CC1_mol_7_conformer_0.zora_sf

 Forcing recalculation of ZORA corrections
       Generating atomic ZORA corrections
       ----------------------------------

 In dft_scf:: zora:Knucl= F

 Grid_pts file          = ./C1CC1_mol_7_conformer_0.gridpts.00
 Record size in doubles =  12289        No. of grid_pts per rec  =   3070
 Max. records in memory =      2        Max. recs in file   =     13608


 Wrote atomic ZORA corrections to ./C1CC1_mol_7_conformer_0.zora_sf


 Loading old vectors from job with title :

Molecule conformer 0


      Symmetry analysis of molecular orbitals - initial
      -------------------------------------------------

  Numbering of irreducible representations: 

     1 a1'         2 a1"         3 a2'         4 a2"         5 e'      
     6 e"      

  Orbital symmetries:

     1 a1'         2 e'          3 e'          4 a1'         5 e'      
     6 e'          7 a2"         8 a1'         9 e"         10 e"      
    11 e'         12 e'         13 a1'        14 a2"        15 e'      
    16 e'         17 a2'        18 e"         19 e"         20 e'      
    21 e'         22 a1'     

   Time after variat. SCF:     42.6
   Time prior to 1st pass:     42.6

           Memory utilization after 1st SCF pass: 
           Heap Space remaining (MW):      131.04           131041578
          Stack Space remaining (MW):      131.06           131064900

   convergence    iter        energy       DeltaE   RMS-Dens  Diis-err    time
 ---------------- ----- ----------------- --------- --------- ---------  ------
 d= 0,ls=0.0,diis     1   -117.9572797372 -1.93D+02  6.67D-04  8.89D-04    43.5
 d= 0,ls=0.0,diis     2   -117.9573944622 -1.15D-04  2.45D-04  1.34D-04    44.5
 d= 0,ls=0.0,diis     3   -117.9574015547 -7.09D-06  9.66D-05  8.83D-05    45.5
 d= 0,ls=0.0,diis     4   -117.9574131366 -1.16D-05  2.20D-06  1.49D-08    47.0
 d= 0,ls=0.0,diis     5   -117.9574131394 -2.84D-09  2.65D-07  7.01D-11    48.1
(nogshift,skip_gshiftAOev,done_Fji)=( 1,F,F)


         Total DFT energy =     -117.957413139426
      One electron energy =     -306.044935352253
           Coulomb energy =      131.281844669590
    Exchange-Corr. energy =      -18.545426870926
 Nuclear repulsion energy =       75.351104414163

       Scaling correction =        0.026241809460

 Numeric. integr. density =       23.999999660832

     Total iterative time =      5.5s



                  Occupations of the irreducible representations
                  ----------------------------------------------

                     irrep           alpha         beta
                     --------     --------     --------
                     a1'               3.0          3.0
                     a1"               0.0          0.0
                     a2'               0.0          0.0
                     a2"               1.0          1.0
                     e'                6.0          6.0
                     e"                2.0          2.0


 center of mass
 --------------
 x =  -0.00000000 y =   0.00000000 z =   0.00000000

 moments of inertia (a.u.)
 ------------------
          90.684460415946          -0.000000000000           0.000000000000
          -0.000000000000          90.684460415946           0.000000000000
           0.000000000000           0.000000000000         145.079282928615
 Line search: 
     step= 1.00 grad=-2.1D-03 hess= 5.1D-04 energy=   -117.957413 mode=downhill
 new step= 2.04                   predicted energy=   -117.957960
  no constraints, skipping    0.0000000000000000     
  no constraints, skipping    0.0000000000000000     
  no constraints, skipping    0.0000000000000000     
  no constraints, skipping    0.0000000000000000     
  no constraints, skipping    0.0000000000000000     
  no constraints, skipping    0.0000000000000000     
  no constraints, skipping    0.0000000000000000     
  no constraints, skipping    0.0000000000000000     

          --------
          Step   2
          --------


                         Geometry "geometry" -> "geometry"
                         ---------------------------------

 Output coordinates in angstroms (scale by  1.889725989 to convert to a.u.)

  No.       Tag          Charge          X              Y              Z
 ---- ---------------- ---------- -------------- -------------- --------------
    1 C                    6.0000    -0.85067016     0.22793638     0.00000000
    2 C                    6.0000     0.22793638    -0.85067016     0.00000000
    3 C                    6.0000     0.62273378     0.62273378     0.00000000
    4 H                    1.0000    -1.41494598     0.37913363     0.91303848
    5 H                    1.0000    -1.41494598     0.37913363    -0.91303848
    6 H                    1.0000     0.37913363    -1.41494598     0.91303848
    7 H                    1.0000     0.37913363    -1.41494598    -0.91303848
    8 H                    1.0000     1.03581235     1.03581235     0.91303848
    9 H                    1.0000     1.03581235     1.03581235    -0.91303848

      Atomic Mass 
      ----------- 

      C                 12.000000
      H                  1.007825


 Effective nuclear repulsion energy (a.u.)      75.1413598802

            Nuclear Dipole moment (a.u.) 
            ----------------------------
        X                 Y               Z
 ---------------- ---------------- ----------------
     0.0000000000     0.0000000000     0.0000000000

      Symmetry information
      --------------------

 Group name             D3h       
 Group number             27
 Group order              12
 No. of unique centers     2

      Symmetry unique atoms

     1    4


                                 NWChem DFT Module
                                 -----------------


                               Molecule conformer 0




 Summary of "ao basis" -> "ao basis" (spherical)
 ------------------------------------------------------------------------------
       Tag                 Description            Shells   Functions and Types
 ---------------- ------------------------------  ------  ---------------------
 C                           6-311G                  7       13   4s3p
 H                           6-311G                  3        3   3s


      Symmetry analysis of basis
      --------------------------

        a1'        10
        a1"         0
        a2'         3
        a2"         6
        e'         26
        e"         12

  Caching 1-el integrals 
  Rotation of axis 

            General Information
            -------------------
          SCF calculation type: DFT
          Wavefunction type:  closed shell.
          No. of atoms     :     9
          No. of electrons :    24
           Alpha electrons :    12
            Beta electrons :    12
          Charge           :     0
          Spin multiplicity:     1
          Use of symmetry is: on ; symmetry adaption is: on 
          Maximum number of iterations: ***
          This is a Direct SCF calculation.
          AO basis - number of functions:    57
                     number of shells:    39
          Convergence on energy requested:  1.00D-06
          Convergence on density requested:  1.00D-05
          Convergence on gradient requested:  5.00D-04

              XC Information
              --------------
                         B3LYP Method XC Potential
                     Hartree-Fock (Exact) Exchange  0.200          
                        Slater Exchange Functional  0.800 local    
                    Becke 1988 Exchange Functional  0.720 non-local
              Lee-Yang-Parr Correlation Functional  0.810          
                  VWN I RPA Correlation Functional  0.190 local    

             Grid Information
             ----------------
          Grid used for XC integration:  fine      
          Radial quadrature: Mura-Knowles        
          Angular quadrature: Lebedev. 
          Tag              B.-S. Rad. Rad. Pts. Rad. Cut. Ang. Pts.
          ---              ---------- --------- --------- ---------
          C                   0.70       70           8.0       590
          H                   0.35       60          10.0       590
          Grid pruning is: on 
          Number of quadrature shells:   130
          Spatial weights used:  Erf1

          Convergence Information
          -----------------------
          Convergence aids based upon iterative change in 
          total energy or number of iterations. 
          Levelshifting, if invoked, occurs when the 
          HOMO/LUMO gap drops below (HL_TOL):  1.00D-02
          DIIS, if invoked, will attempt to extrapolate 
          using up to (NFOCK): 10 stored Fock matrices.

                    Damping( 0%)  Levelshifting(0.5)       DIIS
                  --------------- ------------------- ---------------
          dE  on:    start            ASAP                start   
          dE off:    2 iters        *** iters           *** iters 


      Screening Tolerance Information
      -------------------------------
          Density screening/tol_rho:  1.00D-10
          AO Gaussian exp screening on grid/accAOfunc:  14
          CD Gaussian exp screening on grid/accCDfunc:  20
          XC Gaussian exp screening on grid/accXCfunc:  20
          Schwarz screening/accCoul:  1.00D-08

          Performing ZORA calculations
          ----------------------------


      Superposition of Atomic Density Guess
      -------------------------------------

 Sum of atomic energies:        -116.00451404

 Read atomic ZORA corrections from ./C1CC1_mol_7_conformer_0.zora_sf

 Forcing recalculation of ZORA corrections
       Generating atomic ZORA corrections
       ----------------------------------

 In dft_scf:: zora:Knucl= F

 Grid_pts file          = ./C1CC1_mol_7_conformer_0.gridpts.00
 Record size in doubles =  12289        No. of grid_pts per rec  =   3070
 Max. records in memory =      2        Max. recs in file   =     13608

 Grid integrated density:      23.999997432160
 Requested integration accuracy:   0.10E-06

 Wrote atomic ZORA corrections to ./C1CC1_mol_7_conformer_0.zora_sf


 Loading old vectors from job with title :

Molecule conformer 0


      Symmetry analysis of molecular orbitals - initial
      -------------------------------------------------

  Numbering of irreducible representations: 

     1 a1'         2 a1"         3 a2'         4 a2"         5 e'      
     6 e"      

  Orbital symmetries:

     1 a1'         2 e'          3 e'          4 a1'         5 e'      
     6 e'          7 a2"         8 a1'         9 e"         10 e"      
    11 e'         12 e'         13 a1'        14 a2"        15 e'      
    16 e'         17 a2'        18 e"         19 e"         20 e'      
    21 e'         22 a1'     

   Time after variat. SCF:     53.7
   Time prior to 1st pass:     53.7

           Memory utilization after 1st SCF pass: 
           Heap Space remaining (MW):      131.04           131041578
          Stack Space remaining (MW):      131.06           131064900

   convergence    iter        energy       DeltaE   RMS-Dens  Diis-err    time
 ---------------- ----- ----------------- --------- --------- ---------  ------
 d= 0,ls=0.0,diis     1   -117.9578533910 -1.93D+02  6.63D-04  9.33D-04    55.0
 d= 0,ls=0.0,diis     2   -117.9579732369 -1.20D-04  2.50D-04  1.46D-04    56.4
 d= 0,ls=0.0,diis     3   -117.9579808723 -7.64D-06  1.00D-04  9.66D-05    57.5
 d= 0,ls=0.0,diis     4   -117.9579935822 -1.27D-05  2.64D-06  1.55D-08    58.6
 d= 0,ls=0.0,diis     5   -117.9579935852 -2.97D-09  1.87D-07  7.15D-11    59.9
(nogshift,skip_gshiftAOev,done_Fji)=( 1,F,F)


         Total DFT energy =     -117.957993585215
      One electron energy =     -305.639212037313
           Coulomb energy =      131.068406996006
    Exchange-Corr. energy =      -18.528548424075
 Nuclear repulsion energy =       75.141359880168

       Scaling correction =        0.026250066111

 Numeric. integr. density =       23.999999680628

     Total iterative time =      6.2s



                  Occupations of the irreducible representations
                  ----------------------------------------------

                     irrep           alpha         beta
                     --------     --------     --------
                     a1'               3.0          3.0
                     a1"               0.0          0.0
                     a2'               0.0          0.0
                     a2"               1.0          1.0
                     e'                6.0          6.0
                     e"                2.0          2.0


 center of mass
 --------------
 x =   0.00000000 y =   0.00000000 z =   0.00000000

[...]
(dia2,par1)(k,t,iat1,spin)=(  1,  3,  7,  1)=(     1.24817252,     1.24817252,    -0.12032068,    -0.12032068) ppm
(dia2,par1)(k,t,iat1,spin)=(  2,  3,  7,  1)=(    -4.63127135,    -4.63127135,     0.44988036,     0.44988036) ppm
(dia2,par1)(k,t,iat1,spin)=(  3,  3,  7,  1)=(     1.25015300,     1.25015300,    -1.57468231,    -1.57468231) ppm
 Grid integrated density:      24.000013627996
 Requested integration accuracy:   0.10E-06
dia1(k,t,iat1,ispin)=(  1,  1,  8,  1)=(    23.49824114,    23.49824114) ppm
dia1(k,t,iat1,ispin)=(  1,  2,  8,  1)=(     4.93040906,     4.93040906) ppm
dia1(k,t,iat1,ispin)=(  1,  3,  8,  1)=(     8.17613011,     8.17613011) ppm
dia1(k,t,iat1,ispin)=(  2,  1,  8,  1)=(     4.93041134,     4.93041134) ppm
dia1(k,t,iat1,ispin)=(  2,  2,  8,  1)=(    23.49822863,    23.49822863) ppm
dia1(k,t,iat1,ispin)=(  2,  3,  8,  1)=(     8.17614627,     8.17614627) ppm
dia1(k,t,iat1,ispin)=(  3,  1,  8,  1)=(     7.91184427,     7.91184427) ppm
dia1(k,t,iat1,ispin)=(  3,  2,  8,  1)=(     7.91183966,     7.91183966) ppm
dia1(k,t,iat1,ispin)=(  3,  3,  8,  1)=(    32.14493990,    32.14493990) ppm
(dia2,par1)(k,t,iat1,spin)=(  1,  1,  8,  1)=(     4.75110554,     4.75110554,     0.06601977,     0.06601977) ppm
(dia2,par1)(k,t,iat1,spin)=(  2,  1,  8,  1)=(    -1.14754024,    -1.14754024,    -0.24337912,    -0.24337912) ppm
(dia2,par1)(k,t,iat1,spin)=(  3,  1,  8,  1)=(    -2.37631126,    -2.37631126,     0.88830265,     0.88830265) ppm
(dia2,par1)(k,t,iat1,spin)=(  1,  2,  8,  1)=(    -1.14755323,    -1.14755323,    -0.24335810,    -0.24335810) ppm
(dia2,par1)(k,t,iat1,spin)=(  2,  2,  8,  1)=(     4.75114135,     4.75114135,     0.06602407,     0.06602407) ppm
(dia2,par1)(k,t,iat1,spin)=(  3,  2,  8,  1)=(    -2.37630629,    -2.37630629,     0.88832435,     0.88832435) ppm
(dia2,par1)(k,t,iat1,spin)=(  1,  3,  8,  1)=(    -3.38317292,    -3.38317292,     0.32962779,     0.32962779) ppm
(dia2,par1)(k,t,iat1,spin)=(  2,  3,  8,  1)=(    -3.38314111,    -3.38314111,     0.32962847,     0.32962847) ppm
(dia2,par1)(k,t,iat1,spin)=(  3,  3,  8,  1)=(     1.25771332,     1.25771332,    -1.57282724,    -1.57282724) ppm
 Grid integrated density:      24.000013627996
 Requested integration accuracy:   0.10E-06
dia1(k,t,iat1,ispin)=(  1,  1,  9,  1)=(    23.50207194,    23.50207194) ppm
dia1(k,t,iat1,ispin)=(  1,  2,  9,  1)=(     4.93027976,     4.93027976) ppm
dia1(k,t,iat1,ispin)=(  1,  3,  9,  1)=(    -8.17621076,    -8.17621076) ppm
dia1(k,t,iat1,ispin)=(  2,  1,  9,  1)=(     4.93027748,     4.93027748) ppm
dia1(k,t,iat1,ispin)=(  2,  2,  9,  1)=(    23.50208446,    23.50208446) ppm
dia1(k,t,iat1,ispin)=(  2,  3,  9,  1)=(    -8.17619461,    -8.17619461) ppm
dia1(k,t,iat1,ispin)=(  3,  1,  9,  1)=(    -7.91179906,    -7.91179906) ppm
dia1(k,t,iat1,ispin)=(  3,  2,  9,  1)=(    -7.91180368,    -7.91180368) ppm
dia1(k,t,iat1,ispin)=(  3,  3,  9,  1)=(    32.14890962,    32.14890962) ppm
(dia2,par1)(k,t,iat1,spin)=(  1,  1,  9,  1)=(     4.75115408,     4.75115408,     0.06588839,     0.06588839) ppm
(dia2,par1)(k,t,iat1,spin)=(  2,  1,  9,  1)=(    -1.14755068,    -1.14755068,    -0.24325421,    -0.24325421) ppm
(dia2,par1)(k,t,iat1,spin)=(  3,  1,  9,  1)=(     2.37629061,     2.37629061,    -0.88828095,    -0.88828095) ppm
(dia2,par1)(k,t,iat1,spin)=(  1,  2,  9,  1)=(    -1.14753769,    -1.14753769,    -0.24327523,    -0.24327523) ppm
(dia2,par1)(k,t,iat1,spin)=(  2,  2,  9,  1)=(     4.75111828,     4.75111828,     0.06588409,     0.06588409) ppm
(dia2,par1)(k,t,iat1,spin)=(  3,  2,  9,  1)=(     2.37629558,     2.37629558,    -0.88825925,    -0.88825925) ppm
(dia2,par1)(k,t,iat1,spin)=(  1,  3,  9,  1)=(     3.38330588,     3.38330588,    -0.32962933,    -0.32962933) ppm
(dia2,par1)(k,t,iat1,spin)=(  2,  3,  9,  1)=(     3.38333768,     3.38333768,    -0.32962865,    -0.32962865) ppm
(dia2,par1)(k,t,iat1,spin)=(  3,  3,  9,  1)=(     1.25764194,     1.25764194,    -1.57291901,    -1.57291901) ppm
 Grid integrated density:      24.000013627996
 Requested integration accuracy:   0.10E-06

 Wrote ZORA NMR data to ./C1CC1_mol_7_conformer_0.zora_nmrcs

(nogshift,skip_gshiftAOev,done_Fji)=( 1,F,T)


         Total DFT energy =     -117.960040504170
      One electron energy =     -306.306561179535
           Coulomb energy =      131.400202519979
    Exchange-Corr. energy =      -18.544551172670
 Nuclear repulsion energy =       75.454385847261

             COSMO energy =        0.036483480795

       Scaling correction =        0.026375292397

 Numeric. integr. density =       24.000005166987

     Total iterative time =     27.6s


                                   COSMO solvation results
                                   -----------------------

                 gas phase energy =      -117.958420423589
                 sol phase energy =      -117.960040504170
 (electrostatic) solvation energy =         0.001620080581 (    1.02 kcal/mol)

 center of mass
 --------------
 x =  -0.00000000 y =  -0.00000000 z =   0.00000000

 moments of inertia (a.u.)
 ------------------
          90.209398937406           0.000000000000           0.000000000000
           0.000000000000          90.209398937406           0.000000000000
           0.000000000000           0.000000000000         144.976057703919

            Scalar ZORA NMR Shielding
            -------------------------


          -----------------------------------------
          Chemical Shielding Tensors (GIAO, in ppm)
          -----------------------------------------


 Read ZORA NMR data from ./C1CC1_mol_7_conformer_0.zora_nmrcs

    0 giaofock schwarz done =      99.95%
    0 giaofock schwarz done =     100.00%
 Grid integrated density:      24.000005167039
 Requested integration accuracy:   0.10E-06
                                NWChem CPHF Module
                                ------------------



 solvent parameters
 solvname_short: cdcl3   
 solvname_long:  unknown                            
 dielec:       78.4000
 dielecinf:     1.7769

          ---------------
          -cosmo- solvent
          ---------------
 Cosmo: York-Karplus, doi: 10.1021/jp992097l
 dielectric constant -eps-     =  78.40
 screen = (eps-1)/(eps    )    =   0.98724
 surface charge correction     = lagrangian
 -lineq- algorithm             =   0
 -bem- low  level              =   2
 -bem- from -octahedral-
 gaussian surface charge width =   0.98000
 degree of switching           =   1.00000
 switching function tolerance  =   0.00010
 atomic radii = 
 --------------
    1  6.000  2.000
    2  6.000  2.000
    3  6.000  2.000
    4  1.000  1.300
    5  1.000  1.300
    6  1.000  1.300
    7  1.000  1.300
    8  1.000  1.300
    9  1.000  1.300

 solvent accessible surface
 --------------------------

 ---------- ATOMIC COORDINATES (A.U.) ------------ VDWR(ANG.) --
     1   -1.59864225    0.42835490    0.00000000     2.000
     2    0.42835490   -1.59864225    0.00000000     2.000
     3    1.17028735    1.17028735    0.00000000     2.000
     4   -2.67472622    0.71669073    1.71190815     1.300
     5   -2.67472622    0.71669073   -1.71190815     1.300
     6    0.71669073   -2.67472622    1.71190815     1.300
     7    0.71669073   -2.67472622   -1.71190815     1.300
     8    1.95803549    1.95803549    1.71190815     1.300
     9    1.95803549    1.95803549   -1.71190815     1.300
 number of segments per atom =         32
 number of   points per atom =         32
 atom (   nspa,  nppa )
 ----------------------
    1 (     20,     0 )       0
    2 (     20,     0 )       0
    3 (     18,     0 )       0
    4 (     15,     0 )       0
    5 (     15,     0 )       0
    6 (     15,     0 )       0
    7 (     15,     0 )       0
    8 (     13,     0 )       0
    9 (     13,     0 )       0
 number of -cosmo- surface points =      144
 molecular surface =     91.966 angstrom**2
 molecular volume  =     52.564 angstrom**3
 G(cav/disp)       =      1.320 kcal/mol
 ...... end of -cosmo- initialization ......


  scftype          =     RHF 
  nclosed          =       12
  nopen            =        0
  variables        =      540
  # of vectors     =        3
  tolerance        = 0.10D-03
  level shift      = 0.00D+00
  max iterations   =       50
  max subspace     =       30

 Grid integrated density:      24.000005167034
 Requested integration accuracy:   0.10E-06
 SCF residual:    5.1814025971755348E-005


Iterative solution of linear equations
  No. of variables      540
  No. of equations        3
  Maximum subspace       30
        Iterations       50
       Convergence  1.0D-04
        Start time    289.3


   iter   nsub   residual    time
   ----  ------  --------  ---------
     1      3    3.41D-01     290.7
     2      6    5.27D-03     292.2
     3      9    1.60D-04     293.8
     4     12    6.58D-06     295.2

 Wrote CPHF data to ./C1CC1_mol_7_conformer_0.shieldcphf

 Calc. par tensor-> zora
      Atom:    1  H 
        Diamagnetic
     31.5337     -1.8838     -7.0397
     -1.8838     24.9883      1.8843
     -7.0397      1.8843     33.3889

        Paramagnetic
      1.9162      0.2283      1.0342
      0.2283      2.6970     -0.2847
      1.0342     -0.2847      3.2162

        Total Shielding Tensor
     33.4499     -1.6555     -6.0055
     -1.6555     27.6853      1.5996
     -6.0055      1.5996     36.6051

           isotropic =      32.5801
          anisotropy =      13.5442

          Principal Components and Axis System
                 1           2           3
               41.6096     28.8870     27.2437

      1        -0.6060      0.7523      0.2583
      2         0.1615     -0.2016      0.9661
      3         0.7789      0.6272      0.0007



      Atom:    2  H 
        Diamagnetic
     31.5337     -1.8838      7.0397
     -1.8838     24.9882     -1.8842
      7.0397     -1.8842     33.3888

        Paramagnetic
      1.9162      0.2282     -1.0342
      0.2282      2.6971      0.2847
     -1.0342      0.2847      3.2162

        Total Shielding Tensor
     33.4499     -1.6556      6.0055
     -1.6556     27.6853     -1.5995
      6.0055     -1.5995     36.6050

           isotropic =      32.5801
          anisotropy =      13.5441

          Principal Components and Axis System
                 1           2           3
               41.6095     28.8871     27.2437

      1         0.6060      0.7523      0.2584
      2        -0.1615     -0.2016      0.9660
      3         0.7789     -0.6272     -0.0007



      Atom:    3  H 
        Diamagnetic
     24.9883     -1.8838      1.8843
     -1.8838     31.5337     -7.0397
      1.8843     -7.0397     33.3889

        Paramagnetic
      2.6970      0.2283     -0.2847
      0.2283      1.9162      1.0342
     -0.2847      1.0342      3.2162

        Total Shielding Tensor
     27.6853     -1.6556      1.5996
     -1.6556     33.4499     -6.0055
      1.5996     -6.0055     36.6051

           isotropic =      32.5801
          anisotropy =      13.5442

          Principal Components and Axis System
                 1           2           3
               41.6096     28.8870     27.2437

      1         0.1615     -0.2016      0.9661
      2        -0.6060      0.7523      0.2583
      3         0.7789      0.6272      0.0007



      Atom:    4  H 
        Diamagnetic
     24.9882     -1.8838     -1.8842
     -1.8838     31.5337      7.0397
     -1.8842      7.0397     33.3888

        Paramagnetic
      2.6971      0.2282      0.2847
      0.2282      1.9162     -1.0342
      0.2847     -1.0342      3.2162

        Total Shielding Tensor
     27.6853     -1.6555     -1.5995
     -1.6555     33.4499      6.0055
     -1.5995      6.0055     36.6050

           isotropic =      32.5801
          anisotropy =      13.5441

          Principal Components and Axis System
                 1           2           3
               41.6095     28.8871     27.2437

      1        -0.1615     -0.2016      0.9660
      2         0.6060      0.7523      0.2584
      3         0.7789     -0.6272     -0.0007



      Atom:    5  H 
        Diamagnetic
     28.2493      3.7829      5.1642
      3.7829     28.2494      5.1643
      5.1642      5.1643     33.4027

        Paramagnetic
      2.3016     -0.4557     -0.7715
     -0.4557      2.3016     -0.7715
     -0.7715     -0.7715      3.1975

        Total Shielding Tensor
     30.5509      3.3271      4.3928
      3.3271     30.5509      4.3928
      4.3928      4.3928     36.6001

           isotropic =      32.5673
          anisotropy =      13.5471

          Principal Components and Axis System
                 1           2           3
               41.5987     28.8795     27.2238

      1         0.4433      0.5509     -0.7071
      2         0.4433      0.5509      0.7071
      3         0.7791     -0.6269      0.0000



      Atom:    6  H 
        Diamagnetic
     28.2532      3.7827     -5.1642
      3.7827     28.2532     -5.1642
     -5.1642     -5.1642     33.4066

        Paramagnetic
      2.3021     -0.4556      0.7715
     -0.4556      2.3021      0.7714
      0.7715      0.7714      3.1976

        Total Shielding Tensor
     30.5553      3.3271     -4.3927
      3.3271     30.5553     -4.3927
     -4.3927     -4.3927     36.6042

           isotropic =      32.5716
          anisotropy =      13.5469

          Principal Components and Axis System
                 1           2           3
               41.6029     28.8837     27.2282

      1        -0.4433      0.5509     -0.7071
      2        -0.4433      0.5509      0.7071
      3         0.7791      0.6269      0.0000




 Task  times  cpu:       34.8s     wall:       40.7s


                                NWChem Input Module
                                -------------------


 Summary of allocated global arrays
-----------------------------------
  array 0 => double precision sf 1(57,57),  handle: -987 
  array 1 => double precision sf 1(57,57),  handle: -986 
  array 2 => double precision sf 1(57,57),  handle: -985 
  array 3 => double precision sf 1(57,57),  handle: -984 
  array 4 => double precision sf 1(57,57),  handle: -983 
  array 5 => double precision sf 1(57,57),  handle: -982 
  array 6 => double precision sf 1(57,57),  handle: -981 
  array 7 => double precision sf 1(57,57),  handle: -980 
  array 8 => double precision sf 1(57,57),  handle: -979 
  array 9 => double precision sf 1(57,57),  handle: -978 
  array 10 => double precision sf 1(57,57),  handle: -977 
  array 11 => double precision sf 1(57,57),  handle: -976 
  array 12 => double precision sf 1(57,57),  handle: -975 
  array 13 => double precision sf 1(57,57),  handle: -974 
  array 14 => double precision sf 1(57,57),  handle: -973 
  array 15 => double precision sf 1(57,57),  handle: -972 
  array 16 => double precision sf 1(57,57),  handle: -971 
  array 17 => double precision sf 1(57,57),  handle: -970 
  array 18 => double precision sf 1(57,57),  handle: -969 
  array 19 => double precision sf 1(57,57),  handle: -968 
  array 20 => double precision sf 1(57,57),  handle: -967 
  array 21 => double precision sf 1(57,57),  handle: -966 
  array 22 => double precision sf 1(57,57),  handle: -965 



                         GA Statistics for process    0
                         ------------------------------

       create   destroy   get      put      acc     scatter   gather  read&inc
calls: 4489     4328     1.17e+05 2.13e+04 3.81e+04   60        0     4428     
number of processes/call 0.00e+00 0.00e+00 0.00e+00 0.00e+00 0.00e+00
bytes total:             1.11e+08 2.22e+07 8.22e+07 2.24e+02 0.00e+00 3.54e+04
bytes remote:            9.51e+07 1.74e+07 7.38e+07 -1.12e+02 0.00e+00 0.00e+00
Max memory consumed for GA by this process: 375856 bytes

MA_summarize_allocated_blocks: starting scan ...
MA_summarize_allocated_blocks: scan completed: 0 heap blocks, 0 stack blocks
MA usage statistics:

	allocation statistics:
					      heap	     stack
					      ----	     -----
	current number of blocks	         0	         0
	maximum number of blocks	        66	        59
	current total bytes		         0	         0
	maximum total bytes		   1514288	  24872024
	maximum total K-bytes		      1515	     24873
	maximum total M-bytes		         2	        25


                                     CITATION
                                     --------
                Please cite the following reference when publishing
                           results obtained with NWChem:

          E. Apr, E. J. Bylaska, W. A. de Jong, N. Govind, K. Kowalski,
       T. P. Straatsma, M. Valiev, H. J. J. van Dam, Y. Alexeev, J. Anchell,
       V. Anisimov, F. W. Aquino, R. Atta-Fynn, J. Autschbach, N. P. Bauman,
     J. C. Becca, D. E. Bernholdt, K. Bhaskaran-Nair, S. Bogatko, P. Borowski,
        J. Boschen, J. Brabec, A. Bruner, E. Caut, Y. Chen, G. N. Chuev,
      C. J. Cramer, J. Daily, M. J. O. Deegan, T. H. Dunning Jr., M. Dupuis,
   K. G. Dyall, G. I. Fann, S. A. Fischer, A. Fonari, H. Frchtl, L. Gagliardi,
      J. Garza, N. Gawande, S. Ghosh, K. Glaesemann, A. W. Gtz, J. Hammond,
       V. Helms, E. D. Hermes, K. Hirao, S. Hirata, M. Jacquelin, L. Jensen,
   B. G. Johnson, H. Jnsson, R. A. Kendall, M. Klemm, R. Kobayashi, V. Konkov,
      S. Krishnamoorthy, M. Krishnan, Z. Lin, R. D. Lins, R. J. Littlefield,
      A. J. Logsdail, K. Lopata, W. Ma, A. V. Marenich, J. Martin del Campo,
   D. Mejia-Rodriguez, J. E. Moore, J. M. Mullin, T. Nakajima, D. R. Nascimento,
    J. A. Nichols, P. J. Nichols, J. Nieplocha, A. Otero-de-la-Roza, B. Palmer,
    A. Panyala, T. Pirojsirikul, B. Peng, R. Peverati, J. Pittner, L. Pollack,
   R. M. Richard, P. Sadayappan, G. C. Schatz, W. A. Shelton, D. W. Silverstein,
   D. M. A. Smith, T. A. Soares, D. Song, M. Swart, H. L. Taylor, G. S. Thomas,
            V. Tipparaju, D. G. Truhlar, K. Tsemekhman, T. Van Voorhis,
     . Vzquez-Mayagoitia, P. Verma, O. Villa, A. Vishnu, K. D. Vogiatzis,
        D. Wang, J. H. Weare, M. J. Williamson, T. L. Windus, K. Woliski,
        A. T. Wong, Q. Wu, C. Yang, Q. Yu, M. Zacharias, Z. Zhang, Y. Zhao,
                                and R. J. Harrison
                        "NWChem: Past, present, and future
                         J. Chem. Phys. 152, 184102 (2020)
                               doi:10.1063/5.0004997

                                      AUTHORS
                                      -------
     E. Apra, E. J. Bylaska, N. Govind, K. Kowalski, M. Valiev, W. A. de Jong,
      T. P. Straatsma, H. J. J. van Dam, D. Wang, T. L. Windus, N. P. Bauman,
       A. Panyala, J. Hammond, J. Autschbach, K. Bhaskaran-Nair, J. Brabec,
    K. Lopata, S. A. Fischer, S. Krishnamoorthy, M. Jacquelin, W. Ma, M. Klemm,
       O. Villa, Y. Chen, V. Anisimov, F. Aquino, S. Hirata, M. T. Hackler,
           Eric Hermes, L. Jensen, J. E. Moore, J. C. Becca, V. Konjkov,
            D. Mejia-Rodriguez, T. Risthaus, M. Malagoli, A. Marenich,
   A. Otero-de-la-Roza, J. Mullin, P. Nichols, R. Peverati, J. Pittner, Y. Zhao,
        P.-D. Fan, A. Fonari, M. J. Williamson, R. J. Harrison, J. R. Rehr,
      M. Dupuis, D. Silverstein, D. M. A. Smith, J. Nieplocha, V. Tipparaju,
      M. Krishnan, B. E. Van Kuiken, A. Vazquez-Mayagoitia, M. Swart, Q. Wu,
   T. Van Voorhis, A. A. Auer, M. Nooijen, L. D. Crosby, E. Brown, G. Cisneros,
     G. I. Fann, H. Fruchtl, J. Garza, K. Hirao, R. A. Kendall, J. A. Nichols,
       K. Tsemekhman, K. Wolinski, J. Anchell, D. E. Bernholdt, P. Borowski,
       T. Clark, D. Clerc, H. Dachsel, M. J. O. Deegan, K. Dyall, D. Elwood,
      E. Glendening, M. Gutowski, A. C. Hess, J. Jaffe, B. G. Johnson, J. Ju,
        R. Kobayashi, R. Kutteh, Z. Lin, R. Littlefield, X. Long, B. Meng,
      T. Nakajima, S. Niu, L. Pollack, M. Rosing, K. Glaesemann, G. Sandrone,
      M. Stave, H. Taylor, G. Thomas, J. H. van Lenthe, A. T. Wong, Z. Zhang.

 Total times  cpu:      254.7s     wall:      295.5s
