 argument  1 = C1CC1_mol_5_conformer_0.nw



============================== echo of input deck ==============================
start

title "Molecule conformer 0"

memory total 4000 mb

echo
geometry units angstroms
   C     -0.4785    -0.7333     0.0181
   C     -0.3960     0.7811    -0.0134
   C      0.8745    -0.0477    -0.0048
   H     -0.7744    -1.1969    -0.9468
   H     -0.7615    -1.1569     1.0050
   H     -0.6292     1.2735     0.9544
   H     -0.6421     1.2335    -0.9973
   H      1.3971    -0.0966    -0.9836
   H      1.4100    -0.0567     0.9682
end


basis spherical
* library 6-311G
end

driver
  maxiter 500
  xyz final
end

relativistic
  zora on
  zora:cutoff_NMR 1d-8
  zora:cutoff 1d-30
end

dft
  direct
  grid fine
  xc B3LYP
  mult 1
  maxiter 1500
  noprint "final vectors analysis" multipole
end

task dft optimize

task dft freq

property
  shielding 6 4 5 6 7 8 9
end

cosmo
   solvent cdcl3
end

task dft property
================================================================================


                                         
                                         


             Northwest Computational Chemistry Package (NWChem) 7.0.2
             --------------------------------------------------------


                    Environmental Molecular Sciences Laboratory
                       Pacific Northwest National Laboratory
                                Richland, WA 99352

                              Copyright (c) 1994-2020
                       Pacific Northwest National Laboratory
                            Battelle Memorial Institute

             NWChem is an open-source computational chemistry package
                        distributed under the terms of the
                      Educational Community License (ECL) 2.0
             A copy of the license is included with this distribution
                              in the LICENSE.TXT file

                                  ACKNOWLEDGMENT
                                  --------------

            This software and its documentation were developed at the
            EMSL at Pacific Northwest National Laboratory, a multiprogram
            national laboratory, operated for the U.S. Department of Energy
            by Battelle under Contract Number DE-AC05-76RL01830. Support
            for this work was provided by the Department of Energy Office
            of Biological and Environmental Research, Office of Basic
            Energy Sciences, and the Office of Advanced Scientific Computing.


           Job information
           ---------------

    hostname        = ponder
    program         = nwchem
    date            = Fri Aug  2 16:55:41 2024

    compiled        = Sat_Apr_09_17:12:10_2022
    source          = /build/nwchem-f1f4gx/nwchem-7.0.2/build-openmpi
    nwchem branch   = 7.0.2
    nwchem revision = N/A
    ga revision     = 5.8.1
    use scalapack   = T
    input           = C1CC1_mol_5_conformer_0.nw
    prefix          = C1CC1_mol_5_conformer_0.
    data base       = ./C1CC1_mol_5_conformer_0.db
    status          = startup
    nproc           =       40
    time left       =     -1s



           Memory information
           ------------------

    heap     =  131072000 doubles =   1000.0 Mbytes
    stack    =  131071997 doubles =   1000.0 Mbytes
    global   =  262144000 doubles =   2000.0 Mbytes (distinct from heap & stack)
    total    =  524287997 doubles =   4000.0 Mbytes
    verify   = yes
    hardfail = no 


           Directory information
           ---------------------

  0 permanent = .
  0 scratch   = .




                                NWChem Input Module
                                -------------------


                               Molecule conformer 0
                               --------------------

 Scaling coordinates for geometry "geometry" by  1.889725989
 (inverse scale =  0.529177249)

 C3H symmetry detected

          ------
          auto-z
          ------
  no constraints, skipping    0.0000000000000000     
  no constraints, skipping    0.0000000000000000     


                             Geometry "geometry" -> ""
                             -------------------------

 Output coordinates in angstroms (scale by  1.889725989 to convert to a.u.)

  No.       Tag          Charge          X              Y              Z
 ---- ---------------- ---------- -------------- -------------- --------------
    1 C                    6.0000    -0.85412577     0.19372457     0.00000000
    2 C                    6.0000     0.59483328     0.64283233     0.00000000
    3 C                    6.0000     0.25929249    -0.83655689     0.00000000
    4 H                    1.0000    -1.37081244     0.31089534    -0.97610922
    5 H                    1.0000    -1.37081244     0.31089534     0.97610922
    6 H                    1.0000     0.95464949     1.03171073     0.97610922
    7 H                    1.0000     0.95464949     1.03171073    -0.97610922
    8 H                    1.0000     0.41616295    -1.34260607    -0.97610922
    9 H                    1.0000     0.41616295    -1.34260607     0.97610922

      Atomic Mass 
      ----------- 

      C                 12.000000
      H                  1.007825


 Effective nuclear repulsion energy (a.u.)      75.1277798198

            Nuclear Dipole moment (a.u.) 
            ----------------------------
        X                 Y               Z
 ---------------- ---------------- ----------------
    -0.0000000000     0.0000000000     0.0000000000

      Symmetry information
      --------------------

 Group name             C3h       
 Group number             22
 Group order               6
 No. of unique centers     2

      Symmetry unique atoms

     1    4



                                Z-matrix (autoz)
                                -------- 

 Units are Angstrom for bonds and degrees for angles

      Type          Name      I     J     K     L     M      Value
      ----------- --------  ----- ----- ----- ----- ----- ----------
    1 Stretch                  1     2                       1.51696
    2 Stretch                  1     3                       1.51696
    3 Stretch                  1     4                       1.11062
    4 Stretch                  1     5                       1.11062
    5 Stretch                  2     3                       1.51696
    6 Stretch                  2     6                       1.11062
    7 Stretch                  2     7                       1.11062
    8 Stretch                  3     8                       1.11062
    9 Stretch                  3     9                       1.11062
   10 Bend                     1     2     3                60.00000
   11 Bend                     1     2     6               114.40072
   12 Bend                     1     2     7               114.40072
   13 Bend                     1     3     2                60.00000
   14 Bend                     1     3     8               114.40177
   15 Bend                     1     3     9               114.40177
   16 Bend                     2     1     3                60.00000
   17 Bend                     2     1     4               114.40177
   18 Bend                     2     1     5               114.40177
   19 Bend                     2     3     8               114.40072
   20 Bend                     2     3     9               114.40072
   21 Bend                     3     1     4               114.40072
   22 Bend                     3     1     5               114.40072
   23 Bend                     3     2     6               114.40177
   24 Bend                     3     2     7               114.40177
   25 Bend                     4     1     5               123.01617
   26 Bend                     6     2     7               123.01617
   27 Bend                     8     3     9               123.01617
   28 Torsion                  1     2     3     8         105.18447
   29 Torsion                  1     2     3     9        -105.18447
   30 Torsion                  1     3     2     6         105.18271
   31 Torsion                  1     3     2     7        -105.18271
   32 Torsion                  2     1     3     8        -105.18271
   33 Torsion                  2     1     3     9         105.18271
   34 Torsion                  2     3     1     4         105.18447
   35 Torsion                  2     3     1     5        -105.18447
   36 Torsion                  3     1     2     6        -105.18447
   37 Torsion                  3     1     2     7         105.18447
   38 Torsion                  3     2     1     4        -105.18271
   39 Torsion                  3     2     1     5         105.18271
   40 Torsion                  4     1     2     6         149.63282
   41 Torsion                  4     1     2     7           0.00176
   42 Torsion                  4     1     3     8           0.00176
   43 Torsion                  4     1     3     9        -149.63282
   44 Torsion                  5     1     2     6          -0.00176
   45 Torsion                  5     1     2     7        -149.63282
   46 Torsion                  5     1     3     8         149.63282
   47 Torsion                  5     1     3     9          -0.00176
   48 Torsion                  6     2     3     8        -149.63282
   49 Torsion                  6     2     3     9          -0.00176
   50 Torsion                  7     2     3     8           0.00176
   51 Torsion                  7     2     3     9         149.63282


            XYZ format geometry
            -------------------
     9
 geometry
 C                    -0.85412577     0.19372457     0.00000000
 C                     0.59483328     0.64283233     0.00000000
 C                     0.25929249    -0.83655689     0.00000000
 H                    -1.37081244     0.31089534    -0.97610922
 H                    -1.37081244     0.31089534     0.97610922
 H                     0.95464949     1.03171073     0.97610922
 H                     0.95464949     1.03171073    -0.97610922
 H                     0.41616295    -1.34260607    -0.97610922
 H                     0.41616295    -1.34260607     0.97610922

 ==============================================================================
                                internuclear distances
 ------------------------------------------------------------------------------
       center one      |      center two      | atomic units |  angstroms
 ------------------------------------------------------------------------------
    2 C                |   1 C                |     2.86665  |     1.51696
    3 C                |   1 C                |     2.86665  |     1.51696
    3 C                |   2 C                |     2.86665  |     1.51696
    4 H                |   1 C                |     2.09877  |     1.11062
    5 H                |   1 C                |     2.09877  |     1.11062
    6 H                |   2 C                |     2.09877  |     1.11062
    7 H                |   2 C                |     2.09877  |     1.11062
    8 H                |   3 C                |     2.09877  |     1.11062
    9 H                |   3 C                |     2.09877  |     1.11062
 ------------------------------------------------------------------------------
                         number of included internuclear distances:          9
 ==============================================================================



 ==============================================================================
                                 internuclear angles
 ------------------------------------------------------------------------------
        center 1       |       center 2       |       center 3       |  degrees
 ------------------------------------------------------------------------------
    1 C                |   2 C                |   3 C                |    60.00
    2 C                |   1 C                |   4 H                |   114.40
    2 C                |   1 C                |   5 H                |   114.40
    3 C                |   1 C                |   4 H                |   114.40
    3 C                |   1 C                |   5 H                |   114.40
    4 H                |   1 C                |   5 H                |   123.02
    2 C                |   1 C                |   3 C                |    60.00
    1 C                |   2 C                |   6 H                |   114.40
    1 C                |   2 C                |   7 H                |   114.40
    3 C                |   2 C                |   6 H                |   114.40
    3 C                |   2 C                |   7 H                |   114.40
    6 H                |   2 C                |   7 H                |   123.02
    3 C                |   1 C                |   2 C                |    60.00
    1 C                |   3 C                |   8 H                |   114.40
    1 C                |   3 C                |   9 H                |   114.40
    2 C                |   3 C                |   8 H                |   114.40
    2 C                |   3 C                |   9 H                |   114.40
    8 H                |   3 C                |   9 H                |   123.02
 ------------------------------------------------------------------------------
                            number of included internuclear angles:         18
 ==============================================================================





 Summary of "ao basis" -> "" (spherical)
 ------------------------------------------------------------------------------
       Tag                 Description            Shells   Functions and Types
 ---------------- ------------------------------  ------  ---------------------
 *                           6-311G                   on all atoms 




                           NWChem Geometry Optimization
                           ----------------------------




                               Molecule conformer 0


  no constraints, skipping    0.0000000000000000     
 maximum gradient threshold         (gmax) =   0.000450
 rms gradient threshold             (grms) =   0.000300
 maximum cartesian step threshold   (xmax) =   0.001800
 rms cartesian step threshold       (xrms) =   0.001200
 fixed trust radius                (trust) =   0.300000
 maximum step size to saddle      (sadstp) =   0.100000
 energy precision                  (eprec) =   5.0D-06
 maximum number of steps          (nptopt) =  500
 initial hessian option           (inhess) =    0
 line search option               (linopt) =    1
 hessian update option            (modupd) =    1
 saddle point option              (modsad) =    0
 initial eigen-mode to follow     (moddir) =    0
 initial variable to follow       (vardir) =    0
 follow first negative mode     (firstneg) =    T
 apply conjugacy                    (opcg) =    F
 source of zmatrix                         =   autoz   


          -------------------
          Energy Minimization
          -------------------


 Names of Z-matrix variables 
    1              2              3              4              5         
    6              7              8              9             10         
   11             12             13             14             15         
   16             17             18             19             20         
   21             22             23             24             25         
   26             27             28             29             30         
   31             32             33             34             35         
   36             37             38             39             40         
   41             42             43             44             45         
   46             47             48             49             50         
   51         

 Variables with the same non-blank name are constrained to be equal


 Using diagonal initial Hessian 
 Scaling for Hessian diagonals: bonds = 1.00  angles = 0.25  torsions = 0.10

          --------
          Step   0
          --------


                         Geometry "geometry" -> "geometry"
                         ---------------------------------

 Output coordinates in angstroms (scale by  1.889725989 to convert to a.u.)

  No.       Tag          Charge          X              Y              Z
 ---- ---------------- ---------- -------------- -------------- --------------
    1 C                    6.0000    -0.85412577     0.19372457     0.00000000
    2 C                    6.0000     0.59483328     0.64283233     0.00000000
    3 C                    6.0000     0.25929249    -0.83655689     0.00000000
    4 H                    1.0000    -1.37081244     0.31089534    -0.97610922
    5 H                    1.0000    -1.37081244     0.31089534     0.97610922
    6 H                    1.0000     0.95464949     1.03171073     0.97610922
    7 H                    1.0000     0.95464949     1.03171073    -0.97610922
    8 H                    1.0000     0.41616295    -1.34260607    -0.97610922
    9 H                    1.0000     0.41616295    -1.34260607     0.97610922

      Atomic Mass 
      ----------- 

      C                 12.000000
      H                  1.007825


 Effective nuclear repulsion energy (a.u.)      75.1277798198

            Nuclear Dipole moment (a.u.) 
            ----------------------------
        X                 Y               Z
 ---------------- ---------------- ----------------
    -0.0000000000     0.0000000000     0.0000000000

      Symmetry information
      --------------------

 Group name             C3h       
 Group number             22
 Group order               6
 No. of unique centers     2

      Symmetry unique atoms

     1    4


                                 NWChem DFT Module
                                 -----------------


                               Molecule conformer 0


                      Basis "ao basis" -> "ao basis" (spherical)
                      -----
  C (Carbon)
  ----------
            Exponent  Coefficients 
       -------------- ---------------------------------------------------------
  1 S  4.56324000E+03  0.001967
  1 S  6.82024000E+02  0.015231
  1 S  1.54973000E+02  0.076127
  1 S  4.44553000E+01  0.260801
  1 S  1.30290000E+01  0.616462
  1 S  1.82773000E+00  0.221006

  2 S  2.09642000E+01  0.114660
  2 S  4.80331000E+00  0.919999
  2 S  1.45933000E+00 -0.003031

  3 P  2.09642000E+01  0.040249
  3 P  4.80331000E+00  0.237594
  3 P  1.45933000E+00  0.815854

  4 S  4.83456000E-01  1.000000

  5 P  4.83456000E-01  1.000000

  6 S  1.45585000E-01  1.000000

  7 P  1.45585000E-01  1.000000

  H (Hydrogen)
  ------------
            Exponent  Coefficients 
       -------------- ---------------------------------------------------------
  1 S  3.38650000E+01  0.025494
  1 S  5.09479000E+00  0.190373
  1 S  1.15879000E+00  0.852161

  2 S  3.25840000E-01  1.000000

  3 S  1.02741000E-01  1.000000



 Summary of "ao basis" -> "ao basis" (spherical)
 ------------------------------------------------------------------------------
       Tag                 Description            Shells   Functions and Types
 ---------------- ------------------------------  ------  ---------------------
 C                           6-311G                  7       13   4s3p
 H                           6-311G                  3        3   3s




 Summary of "ao basis" -> "ao basis" (spherical)
 ------------------------------------------------------------------------------
       Tag                 Description            Shells   Functions and Types
 ---------------- ------------------------------  ------  ---------------------
 C                           6-311G                  7       13   4s3p
 H                           6-311G                  3        3   3s


      Symmetry analysis of basis
      --------------------------

        a'         13
        e'+        13
        e'-        13
        a"          6
        e"+         6
        e"-         6

  Caching 1-el integrals 
  Rotation of axis 

            General Information
            -------------------
          SCF calculation type: DFT
          Wavefunction type:  closed shell.
          No. of atoms     :     9
          No. of electrons :    24
           Alpha electrons :    12
            Beta electrons :    12
          Charge           :     0
          Spin multiplicity:     1
          Use of symmetry is: on ; symmetry adaption is: on 
          Maximum number of iterations: ***
          This is a Direct SCF calculation.
          AO basis - number of functions:    57
                     number of shells:    39
          Convergence on energy requested:  1.00D-06
          Convergence on density requested:  1.00D-05
          Convergence on gradient requested:  5.00D-04

              XC Information
              --------------
                         B3LYP Method XC Potential
                     Hartree-Fock (Exact) Exchange  0.200          
                        Slater Exchange Functional  0.800 local    
                    Becke 1988 Exchange Functional  0.720 non-local
              Lee-Yang-Parr Correlation Functional  0.810          
                  VWN I RPA Correlation Functional  0.190 local    

             Grid Information
             ----------------
          Grid used for XC integration:  fine      
          Radial quadrature: Mura-Knowles        
          Angular quadrature: Lebedev. 
          Tag              B.-S. Rad. Rad. Pts. Rad. Cut. Ang. Pts.
          ---              ---------- --------- --------- ---------
          C                   0.70       70           8.0       590
          H                   0.35       60          10.0       590
          Grid pruning is: on 
          Number of quadrature shells:   130
          Spatial weights used:  Erf1

          Convergence Information
          -----------------------
          Convergence aids based upon iterative change in 
          total energy or number of iterations. 
          Levelshifting, if invoked, occurs when the 
          HOMO/LUMO gap drops below (HL_TOL):  1.00D-02
          DIIS, if invoked, will attempt to extrapolate 
          using up to (NFOCK): 10 stored Fock matrices.

                    Damping( 0%)  Levelshifting(0.5)       DIIS
                  --------------- ------------------- ---------------
          dE  on:    start            ASAP                start   
          dE off:    2 iters        *** iters           *** iters 


      Screening Tolerance Information
      -------------------------------
          Density screening/tol_rho:  1.00D-10
          AO Gaussian exp screening on grid/accAOfunc:  14
          CD Gaussian exp screening on grid/accCDfunc:  20
          XC Gaussian exp screening on grid/accXCfunc:  20
          Schwarz screening/accCoul:  1.00D-08

          Performing ZORA calculations
          ----------------------------


      Superposition of Atomic Density Guess
      -------------------------------------

 Sum of atomic energies:        -116.00451404

 Read atomic ZORA corrections from ./C1CC1_mol_5_conformer_0.zora_sf

 dft_zora_read: failed to open./C1CC1_mol_5_conformer_0.zora_sf
 Forcing recalculation of ZORA corrections
       Generating atomic ZORA corrections
       ----------------------------------

 In dft_scf:: zora:Knucl= F

 Grid_pts file          = ./C1CC1_mol_5_conformer_0.gridpts.00
 Record size in doubles =  12289        No. of grid_pts per rec  =   3070
 Max. records in memory =      2        Max. recs in file   =     13618

 Grid integrated density:      23.999988394959
 Requested integration accuracy:   0.10E-06

 Wrote atomic ZORA corrections to ./C1CC1_mol_5_conformer_0.zora_sf


      Superposition of Atomic Density Guess
      -------------------------------------

 Sum of atomic energies:        -116.00451404

      Non-variational initial energy
      ------------------------------

 Total energy =    -118.136841
 1-e energy   =    -302.452350
 2-e energy   =     109.187729
 HOMO         =      -0.346978
 LUMO         =       0.077797


      Symmetry analysis of molecular orbitals - initial
      -------------------------------------------------

  Numbering of irreducible representations: 

     1 a'          2 e'+         3 e'-         4 a"          5 e"+     
     6 e"-     

  Orbital symmetries:

     1 a'          2 e'+         3 e'+         4 a'          5 e'+     
     6 e'+         7 a"          8 a'          9 e"+        10 e"+     
    11 e'+        12 e'+        13 a'         14 a"         15 e'+     
    16 e'+        17 a'         18 e"+        19 e"+        20 e'+     
    21 e'+        22 a'      

   Time after variat. SCF:      3.6
   Time prior to 1st pass:      3.6
 Grid integrated density:      23.999994043831
 Requested integration accuracy:   0.10E-06

           Memory utilization after 1st SCF pass: 
           Heap Space remaining (MW):      131.04           131041680
          Stack Space remaining (MW):      131.06           131064900

   convergence    iter        energy       DeltaE   RMS-Dens  Diis-err    time
 ---------------- ----- ----------------- --------- --------- ---------  ------
 d= 0,ls=0.0,diis     1   -117.9144592206 -1.93D+02  6.25D-03  4.05D-01     4.6
 Grid integrated density:      23.999994827927
 Requested integration accuracy:   0.10E-06
 d= 0,ls=0.0,diis     2   -117.9476954185 -3.32D-02  1.02D-03  1.72D-03     5.9
 Grid integrated density:      23.999994797732
 Requested integration accuracy:   0.10E-06
 d= 0,ls=0.0,diis     3   -117.9478920919 -1.97D-04  2.23D-04  2.03D-04     7.1
 Grid integrated density:      23.999994801805
 Requested integration accuracy:   0.10E-06
 d= 0,ls=0.0,diis     4   -117.9479031356 -1.10D-05  1.22D-04  1.07D-04     8.2
 Grid integrated density:      23.999994802584
 Requested integration accuracy:   0.10E-06
 d= 0,ls=0.0,diis     5   -117.9479174220 -1.43D-05  6.39D-06  6.33D-08     9.6
 Grid integrated density:      23.999994802324
 Requested integration accuracy:   0.10E-06
 d= 0,ls=0.0,diis     6   -117.9479174312 -9.26D-09  1.09D-06  7.72D-10    10.7
(nogshift,skip_gshiftAOev,done_Fji)=( 1,F,F)


         Total DFT energy =     -117.947917431230
      One electron energy =     -305.643085814569
           Coulomb energy =      131.051798820425
    Exchange-Corr. energy =      -18.484410256882
 Nuclear repulsion energy =       75.127779819797

       Scaling correction =        0.026255798582

 Numeric. integr. density =       23.999994802324

     Total iterative time =      7.1s



                  Occupations of the irreducible representations
                  ----------------------------------------------

                     irrep           alpha         beta
                     --------     --------     --------
                     a'                3.0          3.0
                     e'+               6.0          6.0
                     e'-               0.0          0.0
                     a"                1.0          1.0
                     e"+               2.0          2.0
                     e"-               0.0          0.0


 center of mass
 --------------
 x =  -0.00000000 y =   0.00000000 z =   0.00000000

 moments of inertia (a.u.)
 ------------------
          91.213120172292           0.000000000000           0.000000000000
           0.000000000000          91.213120172292           0.000000000000
           0.000000000000           0.000000000000         141.277089661513

            General Information
            -------------------
          SCF calculation type: DFT
          Wavefunction type:  closed shell.
          No. of atoms     :     9
          No. of electrons :    24
           Alpha electrons :    12
            Beta electrons :    12
          Charge           :     0
          Spin multiplicity:     1
          Use of symmetry is: on ; symmetry adaption is: on 
          Maximum number of iterations: ***
          This is a Direct SCF calculation.
          AO basis - number of functions:    57
                     number of shells:    39
          Convergence on energy requested:  1.00D-06
          Convergence on density requested:  1.00D-05
          Convergence on gradient requested:  5.00D-04

              XC Information
              --------------
                         B3LYP Method XC Potential
                     Hartree-Fock (Exact) Exchange  0.200          
                        Slater Exchange Functional  0.800 local    
                    Becke 1988 Exchange Functional  0.720 non-local
              Lee-Yang-Parr Correlation Functional  0.810          
                  VWN I RPA Correlation Functional  0.190 local    

             Grid Information
             ----------------
          Grid used for XC integration:  fine      
          Radial quadrature: Mura-Knowles        
          Angular quadrature: Lebedev. 
          Tag              B.-S. Rad. Rad. Pts. Rad. Cut. Ang. Pts.
          ---              ---------- --------- --------- ---------
          C                   0.70       70           8.0       590
          H                   0.35       60          10.0       590
          Grid pruning is: on 
          Number of quadrature shells:   130
          Spatial weights used:  Erf1

          Convergence Information
          -----------------------
          Convergence aids based upon iterative change in 
          total energy or number of iterations. 
          Levelshifting, if invoked, occurs when the 
          HOMO/LUMO gap drops below (HL_TOL):  1.00D-02
          DIIS, if invoked, will attempt to extrapolate 
          using up to (NFOCK): 10 stored Fock matrices.

                    Damping( 0%)  Levelshifting(0.5)       DIIS
                  --------------- ------------------- ---------------
          dE  on:    start            ASAP                start   
          dE off:    2 iters        *** iters           *** iters 


      Screening Tolerance Information
      -------------------------------
          Density screening/tol_rho:  1.00D-10
          AO Gaussian exp screening on grid/accAOfunc:  14
          CD Gaussian exp screening on grid/accCDfunc:  20
          XC Gaussian exp screening on grid/accXCfunc:  20
          Schwarz screening/accCoul:  1.00D-08



                            NWChem DFT Gradient Module
                            --------------------------


                               Molecule conformer 0



  charge          =   0.00
  wavefunction    = closed shell

  Rotation of axis 
  Using symmetry


                         DFT ENERGY GRADIENTS

    atom               coordinates                        gradient
                 x          y          z           x          y          z
   1 C      -1.614064   0.366086   0.000000    0.006861  -0.001549   0.000000
   2 C       1.124072   1.214777   0.000000   -0.004772  -0.005167   0.000000
   3 C       0.489992  -1.580863   0.000000   -0.002089   0.006716   0.000000
   4 H      -2.590460   0.587507  -1.844579    0.002125  -0.000483  -0.023881
   5 H      -2.590460   0.587507   1.844579    0.002125  -0.000483   0.023881
   6 H       1.804026   1.949651   1.844579   -0.001481  -0.001599   0.023881
   7 H       1.804026   1.949651  -1.844579   -0.001481  -0.001599  -0.023881
   8 H       0.786434  -2.537158  -1.844579   -0.000645   0.002082  -0.023881
   9 H       0.786434  -2.537158   1.844579   -0.000645   0.002082   0.023881

                 ----------------------------------------
                 |  Time  |  1-e(secs)   |  2-e(secs)   |
                 ----------------------------------------
                 |  CPU   |       0.00   |       0.02   |
                 ----------------------------------------
                 |  WALL  |       0.00   |       0.02   |
                 ----------------------------------------
  no constraints, skipping    0.0000000000000000     

@ Step       Energy      Delta E   Gmax     Grms     Xrms     Xmax   Walltime
@ ---- ---------------- -------- -------- -------- -------- -------- --------
@    0    -117.94791743  0.0D+00  0.01995  0.00735  0.00000  0.00000     11.9
                                                                    



                                Z-matrix (autoz)
                                -------- 

 Units are Angstrom for bonds and degrees for angles

      Type          Name      I     J     K     L     M      Value     Gradient
      ----------- --------  ----- ----- ----- ----- ----- ---------- ----------
    1 Stretch                  1     2                       1.51696   -0.00658
    2 Stretch                  1     3                       1.51696   -0.00658
    3 Stretch                  1     4                       1.11062    0.01995
    4 Stretch                  1     5                       1.11062    0.01995
    5 Stretch                  2     3                       1.51696   -0.00658
    6 Stretch                  2     6                       1.11062    0.01995
    7 Stretch                  2     7                       1.11062    0.01995
    8 Stretch                  3     8                       1.11062    0.01995
    9 Stretch                  3     9                       1.11062    0.01995
   10 Bend                     1     2     3                60.00000    0.00000
   11 Bend                     1     2     6               114.40072   -0.00221
   12 Bend                     1     2     7               114.40072   -0.00221
   13 Bend                     1     3     2                60.00000   -0.00000
   14 Bend                     1     3     8               114.40177   -0.00221
   15 Bend                     1     3     9               114.40177   -0.00221
   16 Bend                     2     1     3                60.00000    0.00000
   17 Bend                     2     1     4               114.40177   -0.00221
   18 Bend                     2     1     5               114.40177   -0.00221
   19 Bend                     2     3     8               114.40072   -0.00221
   20 Bend                     2     3     9               114.40072   -0.00221
   21 Bend                     3     1     4               114.40072   -0.00221
   22 Bend                     3     1     5               114.40072   -0.00221
   23 Bend                     3     2     6               114.40177   -0.00221
   24 Bend                     3     2     7               114.40177   -0.00221
   25 Bend                     4     1     5               123.01617    0.00530
   26 Bend                     6     2     7               123.01617    0.00530
   27 Bend                     8     3     9               123.01617    0.00530
   28 Torsion                  1     2     3     8         105.18447   -0.00160
   29 Torsion                  1     2     3     9        -105.18447    0.00160
   30 Torsion                  1     3     2     6         105.18271   -0.00160
   31 Torsion                  1     3     2     7        -105.18271    0.00160
   32 Torsion                  2     1     3     8        -105.18271    0.00160
   33 Torsion                  2     1     3     9         105.18271   -0.00160
   34 Torsion                  2     3     1     4         105.18447   -0.00160
   35 Torsion                  2     3     1     5        -105.18447    0.00160
   36 Torsion                  3     1     2     6        -105.18447    0.00160
   37 Torsion                  3     1     2     7         105.18447   -0.00160
   38 Torsion                  3     2     1     4        -105.18271    0.00160
   39 Torsion                  3     2     1     5         105.18271   -0.00160
   40 Torsion                  4     1     2     6         149.63282    0.00319
   41 Torsion                  4     1     2     7           0.00176    0.00000
   42 Torsion                  4     1     3     8           0.00176    0.00000
   43 Torsion                  4     1     3     9        -149.63282   -0.00319
   44 Torsion                  5     1     2     6          -0.00176   -0.00000
   45 Torsion                  5     1     2     7        -149.63282   -0.00319
   46 Torsion                  5     1     3     8         149.63282    0.00319
   47 Torsion                  5     1     3     9          -0.00176   -0.00000
   48 Torsion                  6     2     3     8        -149.63282   -0.00319
   49 Torsion                  6     2     3     9          -0.00176   -0.00000
   50 Torsion                  7     2     3     8           0.00176    0.00000
   51 Torsion                  7     2     3     9         149.63282    0.00319

 Restricting large step in mode   11 eval= 4.4D-02 step=-3.5D-01 new=-3.0D-01
  no constraints, skipping    0.0000000000000000     
  no constraints, skipping    0.0000000000000000     
  no constraints, skipping    0.0000000000000000     
  no constraints, skipping    0.0000000000000000     
  no constraints, skipping    0.0000000000000000     
  no constraints, skipping    0.0000000000000000     
  no constraints, skipping    0.0000000000000000     
  no constraints, skipping    0.0000000000000000     

                                 NWChem DFT Module
                                 -----------------


                               Molecule conformer 0




 Summary of "ao basis" -> "ao basis" (spherical)
 ------------------------------------------------------------------------------
       Tag                 Description            Shells   Functions and Types
 ---------------- ------------------------------  ------  ---------------------
 C                           6-311G                  7       13   4s3p
 H                           6-311G                  3        3   3s


      Symmetry analysis of basis
      --------------------------

        a'         13
        e'+        13
        e'-        13
        a"          6
        e"+         6
        e"-         6

  Caching 1-el integrals 
  Rotation of axis 

            General Information
            -------------------
          SCF calculation type: DFT
          Wavefunction type:  closed shell.
          No. of atoms     :     9
          No. of electrons :    24
           Alpha electrons :    12
            Beta electrons :    12
          Charge           :     0
          Spin multiplicity:     1
          Use of symmetry is: on ; symmetry adaption is: on 
          Maximum number of iterations: ***
          This is a Direct SCF calculation.
          AO basis - number of functions:    57
                     number of shells:    39
          Convergence on energy requested:  1.00D-06
          Convergence on density requested:  1.00D-05
          Convergence on gradient requested:  5.00D-04

              XC Information
              --------------
                         B3LYP Method XC Potential
                     Hartree-Fock (Exact) Exchange  0.200          
                        Slater Exchange Functional  0.800 local    
                    Becke 1988 Exchange Functional  0.720 non-local
              Lee-Yang-Parr Correlation Functional  0.810          
                  VWN I RPA Correlation Functional  0.190 local    

             Grid Information
             ----------------
          Grid used for XC integration:  fine      
          Radial quadrature: Mura-Knowles        
          Angular quadrature: Lebedev. 
          Tag              B.-S. Rad. Rad. Pts. Rad. Cut. Ang. Pts.
          ---              ---------- --------- --------- ---------
          C                   0.70       70           8.0       590
          H                   0.35       60          10.0       590
          Grid pruning is: on 
          Number of quadrature shells:   130
          Spatial weights used:  Erf1

          Convergence Information
          -----------------------
          Convergence aids based upon iterative change in 
          total energy or number of iterations. 
          Levelshifting, if invoked, occurs when the 
          HOMO/LUMO gap drops below (HL_TOL):  1.00D-02
          DIIS, if invoked, will attempt to extrapolate 
          using up to (NFOCK): 10 stored Fock matrices.

                    Damping( 0%)  Levelshifting(0.5)       DIIS
                  --------------- ------------------- ---------------
          dE  on:    start            ASAP                start   
          dE off:    2 iters        *** iters           *** iters 


      Screening Tolerance Information
      -------------------------------
          Density screening/tol_rho:  1.00D-10
          AO Gaussian exp screening on grid/accAOfunc:  14
          CD Gaussian exp screening on grid/accCDfunc:  20
          XC Gaussian exp screening on grid/accXCfunc:  20
          Schwarz screening/accCoul:  1.00D-08

          Performing ZORA calculations
          ----------------------------


      Superposition of Atomic Density Guess
      -------------------------------------

 Sum of atomic energies:        -116.00451404

 Read atomic ZORA corrections from ./C1CC1_mol_5_conformer_0.zora_sf

 Forcing recalculation of ZORA corrections
       Generating atomic ZORA corrections
       ----------------------------------

 In dft_scf:: zora:Knucl= F

 Grid_pts file          = ./C1CC1_mol_5_conformer_0.gridpts.00
 Record size in doubles =  12289        No. of grid_pts per rec  =   3070
 Max. records in memory =      2        Max. recs in file   =     13618

 Grid integrated density:      23.999992764633
 Requested integration accuracy:   0.10E-06

 Wrote atomic ZORA corrections to ./C1CC1_mol_5_conformer_0.zora_sf


 Loading old vectors from job with title :

Molecule conformer 0


      Symmetry analysis of molecular orbitals - initial
      -------------------------------------------------

  Numbering of irreducible representations: 

     1 a'          2 e'+         3 e'-         4 a"          5 e"+     
     6 e"-     

  Orbital symmetries:

     1 a'          2 e'+         3 e'+         4 a'          5 e'+     
     6 e'+         7 a"          8 a'          9 e"+        10 e"+     
    11 e'+        12 e'+        13 a'         14 a"         15 e'+     
    16 e'+        17 a'         18 e"+        19 e"+        20 e'+     
    21 e'+        22 a'      

   Time after variat. SCF:     17.3
   Time prior to 1st pass:     17.3
 Grid integrated density:      23.999997035598
 Requested integration accuracy:   0.10E-06

           Memory utilization after 1st SCF pass: 
           Heap Space remaining (MW):      131.04           131041680
          Stack Space remaining (MW):      131.06           131064900

   convergence    iter        energy       DeltaE   RMS-Dens  Diis-err    time
 ---------------- ----- ----------------- --------- --------- ---------  ------
 d= 0,ls=0.0,diis     1   -117.9542568885 -1.93D+02  2.09D-03  9.49D-03    18.4
 Grid integrated density:      23.999997058281
 Requested integration accuracy:   0.10E-06
 d= 0,ls=0.0,diis     2   -117.9552622942 -1.01D-03  6.67D-04  1.73D-03    19.9
 Grid integrated density:      23.999997063283
 Requested integration accuracy:   0.10E-06
 d= 0,ls=0.0,diis     3   -117.9553917820 -1.29D-04  3.17D-04  7.56D-04    21.6
 Grid integrated density:      23.999997056931
 Requested integration accuracy:   0.10E-06
 d= 0,ls=0.0,diis     4   -117.9554902278 -9.84D-05  3.53D-05  1.30D-06    23.0
 Grid integrated density:      23.999997058001
 Requested integration accuracy:   0.10E-06
 d= 0,ls=0.0,diis     5   -117.9554904141 -1.86D-07  2.24D-06  1.21D-08    24.2
(nogshift,skip_gshiftAOev,done_Fji)=( 1,F,F)


         Total DFT energy =     -117.955490414092
      One electron energy =     -306.234946110783
           Coulomb energy =      131.376764922111
    Exchange-Corr. energy =      -18.541946787478
 Nuclear repulsion energy =       75.444637562058

       Scaling correction =        0.026239516571

 Numeric. integr. density =       23.999997058001

     Total iterative time =      7.0s



                  Occupations of the irreducible representations
                  ----------------------------------------------

                     irrep           alpha         beta
                     --------     --------     --------
                     a'                3.0          3.0
                     e'+               6.0          6.0
                     e'-               0.0          0.0
                     a"                1.0          1.0
                     e"+               2.0          2.0
                     e"-               0.0          0.0


 center of mass
 --------------
 x =  -0.00000000 y =  -0.00000000 z =   0.00000000

 moments of inertia (a.u.)
 ------------------
          90.557268692351           0.000000000000           0.000000000000
           0.000000000000          90.557268692351           0.000000000000
           0.000000000000           0.000000000000         143.455079676523
 Line search: 
     step= 1.00 grad=-1.2D-02 hess= 4.5D-03 energy=   -117.955490 mode=downhill
 new step= 1.33                   predicted energy=   -117.955994
  no constraints, skipping    0.0000000000000000     
  no constraints, skipping    0.0000000000000000     
  no constraints, skipping    0.0000000000000000     
  no constraints, skipping    0.0000000000000000     
  no constraints, skipping    0.0000000000000000     
  no constraints, skipping    0.0000000000000000     
  no constraints, skipping    0.0000000000000000     
  no constraints, skipping    0.0000000000000000     

          --------
          Step   1
          --------


                         Geometry "geometry" -> "geometry"
                         ---------------------------------

 Output coordinates in angstroms (scale by  1.889725989 to convert to a.u.)

  No.       Tag          Charge          X              Y              Z
 ---- ---------------- ---------- -------------- -------------- --------------
    1 C                    6.0000    -0.86106330     0.19529341     0.00000000
    2 C                    6.0000     0.59966071     0.64805599     0.00000000
    3 C                    6.0000     0.26140260    -0.84334940     0.00000000
    4 H                    1.0000    -1.39106917     0.31549095    -0.91977600
    5 H                    1.0000    -1.39106917     0.31549095     0.91977600
    6 H                    1.0000     0.96875776     1.04695576     0.91977600
    7 H                    1.0000     0.96875776     1.04695576    -0.91977600
    8 H                    1.0000     0.42231141    -1.36244671    -0.91977600
    9 H                    1.0000     0.42231141    -1.36244671     0.91977600

      Atomic Mass 
      ----------- 

      C                 12.000000
      H                  1.007825


 Effective nuclear repulsion energy (a.u.)      75.5598320382

            Nuclear Dipole moment (a.u.) 
            ----------------------------
        X                 Y               Z
 ---------------- ---------------- ----------------
    -0.0000000000    -0.0000000000     0.0000000000

      Symmetry information
      --------------------

 Group name             C3h       
 Group number             22
 Group order               6
 No. of unique centers     2

      Symmetry unique atoms

     1    4


                                 NWChem DFT Module
                                 -----------------


                               Molecule conformer 0




 Summary of "ao basis" -> "ao basis" (spherical)
 ------------------------------------------------------------------------------
       Tag                 Description            Shells   Functions and Types
 ---------------- ------------------------------  ------  ---------------------
 C                           6-311G                  7       13   4s3p
 H                           6-311G                  3        3   3s


      Symmetry analysis of basis
      --------------------------

        a'         13
        e'+        13
        e'-        13
        a"          6
        e"+         6
        e"-         6

  Caching 1-el integrals 
  Rotation of axis 

            General Information
            -------------------
          SCF calculation type: DFT
          Wavefunction type:  closed shell.
          No. of atoms     :     9
          No. of electrons :    24
           Alpha electrons :    12
            Beta electrons :    12
          Charge           :     0
          Spin multiplicity:     1
          Use of symmetry is: on ; symmetry adaption is: on 
          Maximum number of iterations: ***
          This is a Direct SCF calculation.
          AO basis - number of functions:    57
                     number of shells:    39
          Convergence on energy requested:  1.00D-06
          Convergence on density requested:  1.00D-05
          Convergence on gradient requested:  5.00D-04

              XC Information
              --------------
                         B3LYP Method XC Potential
                     Hartree-Fock (Exact) Exchange  0.200          
                        Slater Exchange Functional  0.800 local    
                    Becke 1988 Exchange Functional  0.720 non-local
              Lee-Yang-Parr Correlation Functional  0.810          
                  VWN I RPA Correlation Functional  0.190 local    

             Grid Information
             ----------------
          Grid used for XC integration:  fine      
          Radial quadrature: Mura-Knowles        
          Angular quadrature: Lebedev. 
          Tag              B.-S. Rad. Rad. Pts. Rad. Cut. Ang. Pts.
          ---              ---------- --------- --------- ---------
          C                   0.70       70           8.0       590
          H                   0.35       60          10.0       590
          Grid pruning is: on 
          Number of quadrature shells:   130
          Spatial weights used:  Erf1

          Convergence Information
          -----------------------
          Convergence aids based upon iterative change in 
          total energy or number of iterations. 
          Levelshifting, if invoked, occurs when the 
          HOMO/LUMO gap drops below (HL_TOL):  1.00D-02
          DIIS, if invoked, will attempt to extrapolate 
          using up to (NFOCK): 10 stored Fock matrices.

                    Damping( 0%)  Levelshifting(0.5)       DIIS
                  --------------- ------------------- ---------------
          dE  on:    start            ASAP                start   
          dE off:    2 iters        *** iters           *** iters 


      Screening Tolerance Information
      -------------------------------
          Density screening/tol_rho:  1.00D-10
          AO Gaussian exp screening on grid/accAOfunc:  14
          CD Gaussian exp screening on grid/accCDfunc:  20
          XC Gaussian exp screening on grid/accXCfunc:  20
          Schwarz screening/accCoul:  1.00D-08

          Performing ZORA calculations
          ----------------------------


      Superposition of Atomic Density Guess
      -------------------------------------

 Sum of atomic energies:        -116.00451404

 Read atomic ZORA corrections from ./C1CC1_mol_5_conformer_0.zora_sf

 Forcing recalculation of ZORA corrections
       Generating atomic ZORA corrections
       ----------------------------------

 In dft_scf:: zora:Knucl= F

 Grid_pts file          = ./C1CC1_mol_5_conformer_0.gridpts.00
 Record size in doubles =  12289        No. of grid_pts per rec  =   3070
 Max. records in memory =      2        Max. recs in file   =     13618

 Grid integrated density:      23.999994401448
 Requested integration accuracy:   0.10E-06

 Wrote atomic ZORA corrections to ./C1CC1_mol_5_conformer_0.zora_sf


 Loading old vectors from job with title :

Molecule conformer 0


      Symmetry analysis of molecular orbitals - initial
      -------------------------------------------------

  Numbering of irreducible representations: 

     1 a'          2 e'+         3 e'-         4 a"          5 e"+     
     6 e"-     

  Orbital symmetries:

     1 a'          2 e'+         3 e'+         4 a'          5 e'+     
     6 e'+         7 a"          8 a'          9 e"+        10 e"+     
    11 e'+        12 e'+        13 a'         14 a"         15 e'+     
    16 e'+        17 a'         18 e"+        19 e"+        20 e'+     
    21 e'+        22 a'      

   Time after variat. SCF:     29.7
   Time prior to 1st pass:     29.7

           Memory utilization after 1st SCF pass: 
           Heap Space remaining (MW):      131.04           131041680
          Stack Space remaining (MW):      131.06           131064900

   convergence    iter        energy       DeltaE   RMS-Dens  Diis-err    time
 ---------------- ----- ----------------- --------- --------- ---------  ------
 d= 0,ls=0.0,diis     1   -117.9557051478 -1.94D+02  6.80D-04  1.11D-03    31.1
 d= 0,ls=0.0,diis     2   -117.9558214795 -1.16D-04  2.21D-04  1.93D-04    32.3
 d= 0,ls=0.0,diis     3   -117.9558357992 -1.43D-05  1.07D-04  8.44D-05    33.8
 d= 0,ls=0.0,diis     4   -117.9558467424 -1.09D-05  1.19D-05  1.59D-07    35.3
 d= 0,ls=0.0,diis     5   -117.9558467652 -2.28D-08  7.63D-07  1.35D-09    36.5
(nogshift,skip_gshiftAOev,done_Fji)=( 1,F,F)


         Total DFT energy =     -117.955846765201
      One electron energy =     -306.446062478852
           Coulomb energy =      131.492295364502
    Exchange-Corr. energy =      -18.561911689031
 Nuclear repulsion energy =       75.559832038181

       Scaling correction =        0.026238301513

 Numeric. integr. density =       23.999997999439

     Total iterative time =      6.9s



                  Occupations of the irreducible representations
                  ----------------------------------------------

                     irrep           alpha         beta
                     --------     --------     --------
                     a'                3.0          3.0
                     e'+               6.0          6.0
                     e'-               0.0          0.0
                     a"                1.0          1.0
                     e"+               2.0          2.0
                     e"-               0.0          0.0


 center of mass
 --------------
 x =   0.00000000 y =  -0.00000000 z =   0.00000000

 moments of inertia (a.u.)
 ------------------
          90.346085350862           0.000000000000           0.000000000000
           0.000000000000          90.346085350862           0.000000000000
           0.000000000000           0.000000000000         144.155565721020

            General Information
            -------------------
          SCF calculation type: DFT
          Wavefunction type:  closed shell.
          No. of atoms     :     9
          No. of electrons :    24
           Alpha electrons :    12
            Beta electrons :    12
          Charge           :     0
          Spin multiplicity:     1
          Use of symmetry is: on ; symmetry adaption is: on 
          Maximum number of iterations: ***
          This is a Direct SCF calculation.
          AO basis - number of functions:    57
                     number of shells:    39
          Convergence on energy requested:  1.00D-06
          Convergence on density requested:  1.00D-05
          Convergence on gradient requested:  5.00D-04

              XC Information
              --------------
                         B3LYP Method XC Potential
                     Hartree-Fock (Exact) Exchange  0.200          
                        Slater Exchange Functional  0.800 local    
                    Becke 1988 Exchange Functional  0.720 non-local
              Lee-Yang-Parr Correlation Functional  0.810          
                  VWN I RPA Correlation Functional  0.190 local    

             Grid Information
             ----------------
          Grid used for XC integration:  fine      
          Radial quadrature: Mura-Knowles        
          Angular quadrature: Lebedev. 
          Tag              B.-S. Rad. Rad. Pts. Rad. Cut. Ang. Pts.
          ---              ---------- --------- --------- ---------
          C                   0.70       70           8.0       590
          H                   0.35       60          10.0       590
          Grid pruning is: on 
          Number of quadrature shells:   130
          Spatial weights used:  Erf1

          Convergence Information
          -----------------------
          Convergence aids based upon iterative change in 
          total energy or number of iterations. 
          Levelshifting, if invoked, occurs when the 
          HOMO/LUMO gap drops below (HL_TOL):  1.00D-02
          DIIS, if invoked, will attempt to extrapolate 
          using up to (NFOCK): 10 stored Fock matrices.

                    Damping( 0%)  Levelshifting(0.5)       DIIS
                  --------------- ------------------- ---------------
          dE  on:    start            ASAP                start   
          dE off:    2 iters        *** iters           *** iters 


      Screening Tolerance Information
      -------------------------------
          Density screening/tol_rho:  1.00D-10
          AO Gaussian exp screening on grid/accAOfunc:  14
          CD Gaussian exp screening on grid/accCDfunc:  20
          XC Gaussian exp screening on grid/accXCfunc:  20
          Schwarz screening/accCoul:  1.00D-08



                            NWChem DFT Gradient Module
                            --------------------------


                               Molecule conformer 0



  charge          =   0.00
  wavefunction    = closed shell

  Rotation of axis 
  Using symmetry


                         DFT ENERGY GRADIENTS

    atom               coordinates                        gradient
                 x          y          z           x          y          z
   1 C      -1.627174   0.369051   0.000000   -0.022365   0.005074   0.000000
   2 C       1.133194   1.224648   0.000000    0.015577   0.016831   0.000000
   3 C       0.493979  -1.593699   0.000000    0.006788  -0.021906   0.000000
   4 H      -2.628740   0.596191  -1.738125    0.009270  -0.002103   0.003190
   5 H      -2.628740   0.596191   1.738125    0.009270  -0.002103  -0.003190
   6 H       1.830687   1.978460   1.738125   -0.006456  -0.006976  -0.003190
   7 H       1.830687   1.978460  -1.738125   -0.006456  -0.006976   0.003190
   8 H       0.798053  -2.574651  -1.738125   -0.002814   0.009079   0.003190
   9 H       0.798053  -2.574651   1.738125   -0.002814   0.009079  -0.003190

                 ----------------------------------------
                 |  Time  |  1-e(secs)   |  2-e(secs)   |
                 ----------------------------------------
                 |  CPU   |       0.00   |       0.01   |
                 ----------------------------------------
                 |  WALL  |       0.00   |       0.02   |
                 ----------------------------------------
  no constraints, skipping    0.0000000000000000     

  Step       Energy      Delta E   Gmax     Grms     Xrms     Xmax   Walltime
  ---- ---------------- -------- -------- -------- -------- -------- --------
@    1    -117.95584677 -7.9D-03  0.00758  0.00284  0.05330  0.10624     37.6
                                                                    



                                Z-matrix (autoz)
                                -------- 

 Units are Angstrom for bonds and degrees for angles

      Type          Name      I     J     K     L     M      Value     Gradient
      ----------- --------  ----- ----- ----- ----- ----- ---------- ----------
    1 Stretch                  1     2                       1.52928    0.00226
    2 Stretch                  1     3                       1.52928    0.00226
    3 Stretch                  1     4                       1.06834   -0.00758
    4 Stretch                  1     5                       1.06834   -0.00758
    5 Stretch                  2     3                       1.52928    0.00226
    6 Stretch                  2     6                       1.06834   -0.00758
    7 Stretch                  2     7                       1.06834   -0.00758
    8 Stretch                  3     8                       1.06834   -0.00758
    9 Stretch                  3     9                       1.06834   -0.00758
   10 Bend                     1     2     3                60.00000   -0.00000
   11 Bend                     1     2     6               116.13860   -0.00102
   12 Bend                     1     2     7               116.13860   -0.00102
   13 Bend                     1     3     2                60.00000   -0.00000
   14 Bend                     1     3     8               116.13920   -0.00102
   15 Bend                     1     3     9               116.13920   -0.00102
   16 Bend                     2     1     3                60.00000    0.00000
   17 Bend                     2     1     4               116.13920   -0.00102
   18 Bend                     2     1     5               116.13920   -0.00102
   19 Bend                     2     3     8               116.13860   -0.00102
   20 Bend                     2     3     9               116.13860   -0.00102
   21 Bend                     3     1     4               116.13860   -0.00102
   22 Bend                     3     1     5               116.13860   -0.00102
   23 Bend                     3     2     6               116.13920   -0.00102
   24 Bend                     3     2     7               116.13920   -0.00102
   25 Bend                     4     1     5               118.84519    0.00246
   26 Bend                     6     2     7               118.84519    0.00246
   27 Bend                     8     3     9               118.84519    0.00246
   28 Torsion                  1     2     3     8         106.45939   -0.00076
   29 Torsion                  1     2     3     9        -106.45939    0.00076
   30 Torsion                  1     3     2     6         106.45838   -0.00076
   31 Torsion                  1     3     2     7        -106.45838    0.00076
   32 Torsion                  2     1     3     8        -106.45838    0.00076
   33 Torsion                  2     1     3     9         106.45838   -0.00076
   34 Torsion                  2     3     1     4         106.45939   -0.00076
   35 Torsion                  2     3     1     5        -106.45939    0.00076
   36 Torsion                  3     1     2     6        -106.45939    0.00076
   37 Torsion                  3     1     2     7         106.45939   -0.00076
   38 Torsion                  3     2     1     4        -106.45838    0.00076
   39 Torsion                  3     2     1     5         106.45838   -0.00076
   40 Torsion                  4     1     2     6         147.08223    0.00153
   41 Torsion                  4     1     2     7           0.00101    0.00000
   42 Torsion                  4     1     3     8           0.00101    0.00000
   43 Torsion                  4     1     3     9        -147.08223   -0.00153
   44 Torsion                  5     1     2     6          -0.00101   -0.00000
   45 Torsion                  5     1     2     7        -147.08223   -0.00153
   46 Torsion                  5     1     3     8         147.08223    0.00153
   47 Torsion                  5     1     3     9          -0.00101   -0.00000
   48 Torsion                  6     2     3     8        -147.08223   -0.00153
   49 Torsion                  6     2     3     9          -0.00101   -0.00000
   50 Torsion                  7     2     3     8           0.00101    0.00000
   51 Torsion                  7     2     3     9         147.08223    0.00153

  no constraints, skipping    0.0000000000000000     
  no constraints, skipping    0.0000000000000000     
  no constraints, skipping    0.0000000000000000     
  no constraints, skipping    0.0000000000000000     
  no constraints, skipping    0.0000000000000000     
  no constraints, skipping    0.0000000000000000     
  no constraints, skipping    0.0000000000000000     
  no constraints, skipping    0.0000000000000000     

                                 NWChem DFT Module
                                 -----------------


                               Molecule conformer 0




 Summary of "ao basis" -> "ao basis" (spherical)
 ------------------------------------------------------------------------------
       Tag                 Description            Shells   Functions and Types
 ---------------- ------------------------------  ------  ---------------------
 C                           6-311G                  7       13   4s3p
 H                           6-311G                  3        3   3s


      Symmetry analysis of basis
      --------------------------

        a'         13
        e'+        13
        e'-        13
        a"          6
        e"+         6
        e"-         6

  Caching 1-el integrals 
  Rotation of axis 

            General Information
            -------------------
          SCF calculation type: DFT
          Wavefunction type:  closed shell.
          No. of atoms     :     9
          No. of electrons :    24
           Alpha electrons :    12
            Beta electrons :    12
          Charge           :     0
          Spin multiplicity:     1
          Use of symmetry is: on ; symmetry adaption is: on 
          Maximum number of iterations: ***
          This is a Direct SCF calculation.
          AO basis - number of functions:    57
                     number of shells:    39
          Convergence on energy requested:  1.00D-06
          Convergence on density requested:  1.00D-05
          Convergence on gradient requested:  5.00D-04

              XC Information
              --------------
                         B3LYP Method XC Potential
                     Hartree-Fock (Exact) Exchange  0.200          
                        Slater Exchange Functional  0.800 local    
                    Becke 1988 Exchange Functional  0.720 non-local
              Lee-Yang-Parr Correlation Functional  0.810          
                  VWN I RPA Correlation Functional  0.190 local    

             Grid Information
             ----------------
          Grid used for XC integration:  fine      
          Radial quadrature: Mura-Knowles        
          Angular quadrature: Lebedev. 
          Tag              B.-S. Rad. Rad. Pts. Rad. Cut. Ang. Pts.
          ---              ---------- --------- --------- ---------
          C                   0.70       70           8.0       590
          H                   0.35       60          10.0       590
          Grid pruning is: on 
          Number of quadrature shells:   130
          Spatial weights used:  Erf1

          Convergence Information
          -----------------------
          Convergence aids based upon iterative change in 
          total energy or number of iterations. 
          Levelshifting, if invoked, occurs when the 
          HOMO/LUMO gap drops below (HL_TOL):  1.00D-02
          DIIS, if invoked, will attempt to extrapolate 
          using up to (NFOCK): 10 stored Fock matrices.

                    Damping( 0%)  Levelshifting(0.5)       DIIS
                  --------------- ------------------- ---------------
          dE  on:    start            ASAP                start   
          dE off:    2 iters        *** iters           *** iters 


      Screening Tolerance Information
      -------------------------------
          Density screening/tol_rho:  1.00D-10
          AO Gaussian exp screening on grid/accAOfunc:  14
          CD Gaussian exp screening on grid/accCDfunc:  20
          XC Gaussian exp screening on grid/accXCfunc:  20
          Schwarz screening/accCoul:  1.00D-08

          Performing ZORA calculations
          ----------------------------


      Superposition of Atomic Density Guess
      -------------------------------------

 Sum of atomic energies:        -116.00451404

 Read atomic ZORA corrections from ./C1CC1_mol_5_conformer_0.zora_sf

 Forcing recalculation of ZORA corrections
       Generating atomic ZORA corrections
       ----------------------------------

 In dft_scf:: zora:Knucl= F

 Grid_pts file          = ./C1CC1_mol_5_conformer_0.gridpts.00
 Record size in doubles =  12289        No. of grid_pts per rec  =   3070
 Max. records in memory =      2        Max. recs in file   =     13618


 Wrote atomic ZORA corrections to ./C1CC1_mol_5_conformer_0.zora_sf


 Loading old vectors from job with title :

Molecule conformer 0


      Symmetry analysis of molecular orbitals - initial
      -------------------------------------------------

  Numbering of irreducible representations: 

     1 a'          2 e'+         3 e'-         4 a"          5 e"+     
     6 e"-     

  Orbital symmetries:

     1 a'          2 e'+         3 e'+         4 a'          5 e'+     
     6 e'+         7 a"          8 a'          9 e"+        10 e"+     
    11 e'+        12 e'+        13 a'         14 a"         15 e'+     
    16 e'+        17 a'         18 e"+        19 e"+        20 e'+     
    21 e'+        22 a'      

   Time after variat. SCF:     43.0
   Time prior to 1st pass:     43.0

           Memory utilization after 1st SCF pass: 
           Heap Space remaining (MW):      131.04           131041680
          Stack Space remaining (MW):      131.06           131064900

   convergence    iter        energy       DeltaE   RMS-Dens  Diis-err    time
 ---------------- ----- ----------------- --------- --------- ---------  ------
 d= 0,ls=0.0,diis     1   -117.9572808025 -1.93D+02  6.67D-04  8.89D-04    44.3
 d= 0,ls=0.0,diis     2   -117.9573954620 -1.15D-04  2.45D-04  1.35D-04    45.5
 d= 0,ls=0.0,diis     3   -117.9574026058 -7.14D-06  9.67D-05  8.83D-05    46.7
 d= 0,ls=0.0,diis     4   -117.9574141961 -1.16D-05  2.20D-06  1.49D-08    47.7
 d= 0,ls=0.0,diis     5   -117.9574141989 -2.84D-09  2.64D-07  6.99D-11    49.0
(nogshift,skip_gshiftAOev,done_Fji)=( 1,F,F)


         Total DFT energy =     -117.957414198897
      One electron energy =     -306.045816238703
           Coulomb energy =      131.282287958810
    Exchange-Corr. energy =      -18.545439584832
 Nuclear repulsion energy =       75.351553665828

       Scaling correction =        0.026245050926

 Numeric. integr. density =       23.999999812772

     Total iterative time =      6.0s



                  Occupations of the irreducible representations
                  ----------------------------------------------

                     irrep           alpha         beta
                     --------     --------     --------
                     a'                3.0          3.0
                     e'+               6.0          6.0
                     e'-               0.0          0.0
                     a"                1.0          1.0
                     e"+               2.0          2.0
                     e"-               0.0          0.0


 center of mass
 --------------
 x =  -0.00000000 y =  -0.00000000 z =   0.00000000

 moments of inertia (a.u.)
 ------------------
          90.683189867415           0.000000000000           0.000000000000
           0.000000000000          90.683189867415           0.000000000000
           0.000000000000           0.000000000000         145.077125276577
 Line search: 
     step= 1.00 grad=-2.1D-03 hess= 5.1D-04 energy=   -117.957414 mode=downhill
 new step= 2.03                   predicted energy=   -117.957961
  no constraints, skipping    0.0000000000000000     
  no constraints, skipping    0.0000000000000000     
  no constraints, skipping    0.0000000000000000     
  no constraints, skipping    0.0000000000000000     
  no constraints, skipping    0.0000000000000000     
  no constraints, skipping    0.0000000000000000     
  no constraints, skipping    0.0000000000000000     
  no constraints, skipping    0.0000000000000000     

          --------
          Step   2
          --------


                         Geometry "geometry" -> "geometry"
                         ---------------------------------

 Output coordinates in angstroms (scale by  1.889725989 to convert to a.u.)

  No.       Tag          Charge          X              Y              Z
 ---- ---------------- ---------- -------------- -------------- --------------
    1 C                    6.0000    -0.85886338     0.19479178     0.00000000
    2 C                    6.0000     0.59812632     0.64640162     0.00000000
    3 C                    6.0000     0.26073706    -0.84119340     0.00000000
    4 H                    1.0000    -1.42857481     0.32399796    -0.91304563
    5 H                    1.0000    -1.42857481     0.32399796     0.91304563
    6 H                    1.0000     0.99487787     1.07518309     0.91304563
    7 H                    1.0000     0.99487787     1.07518309    -0.91304563
    8 H                    1.0000     0.43369694    -1.39918106    -0.91304563
    9 H                    1.0000     0.43369694    -1.39918106     0.91304563

      Atomic Mass 
      ----------- 

      C                 12.000000
      H                  1.007825


 Effective nuclear repulsion energy (a.u.)      75.1414100034

            Nuclear Dipole moment (a.u.) 
            ----------------------------
        X                 Y               Z
 ---------------- ---------------- ----------------
    -0.0000000000    -0.0000000000     0.0000000000

      Symmetry information
      --------------------

 Group name             C3h       
 Group number             22
 Group order               6
 No. of unique centers     2

      Symmetry unique atoms

     1    4


                                 NWChem DFT Module
                                 -----------------


                               Molecule conformer 0




 Summary of "ao basis" -> "ao basis" (spherical)
 ------------------------------------------------------------------------------
       Tag                 Description            Shells   Functions and Types
 ---------------- ------------------------------  ------  ---------------------
 C                           6-311G                  7       13   4s3p
 H                           6-311G                  3        3   3s


      Symmetry analysis of basis
      --------------------------

        a'         13
        e'+        13
        e'-        13
        a"          6
        e"+         6
        e"-         6

  Caching 1-el integrals 
  Rotation of axis 

            General Information
            -------------------
          SCF calculation type: DFT
          Wavefunction type:  closed shell.
          No. of atoms     :     9
          No. of electrons :    24
           Alpha electrons :    12
            Beta electrons :    12
          Charge           :     0
          Spin multiplicity:     1
          Use of symmetry is: on ; symmetry adaption is: on 
          Maximum number of iterations: ***
          This is a Direct SCF calculation.
          AO basis - number of functions:    57
                     number of shells:    39
          Convergence on energy requested:  1.00D-06
          Convergence on density requested:  1.00D-05
          Convergence on gradient requested:  5.00D-04

              XC Information
              --------------
                         B3LYP Method XC Potential
                     Hartree-Fock (Exact) Exchange  0.200          
                        Slater Exchange Functional  0.800 local    
                    Becke 1988 Exchange Functional  0.720 non-local
              Lee-Yang-Parr Correlation Functional  0.810          
                  VWN I RPA Correlation Functional  0.190 local    

             Grid Information
             ----------------
          Grid used for XC integration:  fine      
          Radial quadrature: Mura-Knowles        
          Angular quadrature: Lebedev. 
          Tag              B.-S. Rad. Rad. Pts. Rad. Cut. Ang. Pts.
          ---              ---------- --------- --------- ---------
          C                   0.70       70           8.0       590
          H                   0.35       60          10.0       590
          Grid pruning is: on 
          Number of quadrature shells:   130
          Spatial weights used:  Erf1

          Convergence Information
          -----------------------
          Convergence aids based upon iterative change in 
          total energy or number of iterations. 
          Levelshifting, if invoked, occurs when the 
          HOMO/LUMO gap drops below (HL_TOL):  1.00D-02
          DIIS, if invoked, will attempt to extrapolate 
          using up to (NFOCK): 10 stored Fock matrices.

                    Damping( 0%)  Levelshifting(0.5)       DIIS
                  --------------- ------------------- ---------------
          dE  on:    start            ASAP                start   
          dE off:    2 iters        *** iters           *** iters 


      Screening Tolerance Information
      -------------------------------
          Density screening/tol_rho:  1.00D-10
          AO Gaussian exp screening on grid/accAOfunc:  14
          CD Gaussian exp screening on grid/accCDfunc:  20
          XC Gaussian exp screening on grid/accXCfunc:  20
          Schwarz screening/accCoul:  1.00D-08

          Performing ZORA calculations
          ----------------------------


      Superposition of Atomic Density Guess
      -------------------------------------

 Sum of atomic energies:        -116.00451404

 Read atomic ZORA corrections from ./C1CC1_mol_5_conformer_0.zora_sf

 Forcing recalculation of ZORA corrections
       Generating atomic ZORA corrections
       ----------------------------------

 In dft_scf:: zora:Knucl= F

 Grid_pts file          = ./C1CC1_mol_5_conformer_0.gridpts.00
 Record size in doubles =  12289        No. of grid_pts per rec  =   3070
 Max. records in memory =      2        Max. recs in file   =     13618


 Wrote atomic ZORA corrections to ./C1CC1_mol_5_conformer_0.zora_sf


 Loading old vectors from job with title :

Molecule conformer 0


      Symmetry analysis of molecular orbitals - initial
      -------------------------------------------------

  Numbering of irreducible representations: 

     1 a'          2 e'+         3 e'-         4 a"          5 e"+     
     6 e"-     

  Orbital symmetries:

     1 a'          2 e'+         3 e'+         4 a'          5 e'+     
     6 e'+         7 a"          8 a'          9 e"+        10 e"+     
    11 e'+        12 e'+        13 a'         14 a"         15 e'+     
    16 e'+        17 a'         18 e"+        19 e"+        20 e'+     
    21 e'+        22 a'      

   Time after variat. SCF:     54.4
   Time prior to 1st pass:     54.4

           Memory utilization after 1st SCF pass: 
           Heap Space remaining (MW):      131.04           131041680
          Stack Space remaining (MW):      131.06           131064900

   convergence    iter        energy       DeltaE   RMS-Dens  Diis-err    time
 ---------------- ----- ----------------- --------- --------- ---------  ------
 d= 0,ls=0.0,diis     1   -117.9578537123 -1.93D+02  6.63D-04  9.32D-04    55.5
 d= 0,ls=0.0,diis     2   -117.9579733601 -1.20D-04  2.51D-04  1.47D-04    56.4
 d= 0,ls=0.0,diis     3   -117.9579810427 -7.68D-06  1.00D-04  9.66D-05    57.4
 d= 0,ls=0.0,diis     4   -117.9579937473 -1.27D-05  2.65D-06  1.55D-08    58.6
 d= 0,ls=0.0,diis     5   -117.9579937502 -2.97D-09  1.86D-07  7.14D-11    60.1
(nogshift,skip_gshiftAOev,done_Fji)=( 1,F,F)


         Total DFT energy =     -117.957993750220
      One electron energy =     -305.639317138044
           Coulomb energy =      131.068456319036
[...]
(dia2,par1)(k,t,iat1,spin)=(  3,  2,  7,  1)=(     2.46768301,     2.46768301,    -0.92457374,    -0.92457374) ppm
(dia2,par1)(k,t,iat1,spin)=(  1,  3,  7,  1)=(     3.24903203,     3.24903203,    -0.31624267,    -0.31624267) ppm
(dia2,par1)(k,t,iat1,spin)=(  2,  3,  7,  1)=(     3.50990898,     3.50990898,    -0.34218399,    -0.34218399) ppm
(dia2,par1)(k,t,iat1,spin)=(  3,  3,  7,  1)=(     1.25512077,     1.25512077,    -1.57253649,    -1.57253649) ppm
 Grid integrated density:      24.000004678584
 Requested integration accuracy:   0.10E-06
dia1(k,t,iat1,ispin)=(  1,  1,  8,  1)=(    19.41728446,    19.41728446) ppm
dia1(k,t,iat1,ispin)=(  1,  2,  8,  1)=(    -2.77232897,    -2.77232897) ppm
dia1(k,t,iat1,ispin)=(  1,  3,  8,  1)=(    -3.42083484,    -3.42083484) ppm
dia1(k,t,iat1,ispin)=(  2,  1,  8,  1)=(    -2.78712651,    -2.78712651) ppm
dia1(k,t,iat1,ispin)=(  2,  2,  8,  1)=(    27.55476290,    27.55476290) ppm
dia1(k,t,iat1,ispin)=(  2,  3,  8,  1)=(    11.04813951,    11.04813951) ppm
dia1(k,t,iat1,ispin)=(  3,  1,  8,  1)=(    -3.31161708,    -3.31161708) ppm
dia1(k,t,iat1,ispin)=(  3,  2,  8,  1)=(    10.67769184,    10.67769184) ppm
dia1(k,t,iat1,ispin)=(  3,  3,  8,  1)=(    32.11510865,    32.11510865) ppm
(dia2,par1)(k,t,iat1,spin)=(  1,  1,  8,  1)=(     5.69727165,     5.69727165,     0.28653096,     0.28653096) ppm
(dia2,par1)(k,t,iat1,spin)=(  2,  1,  8,  1)=(     0.65043864,     0.65043864,     0.13369462,     0.13369462) ppm
(dia2,par1)(k,t,iat1,spin)=(  3,  1,  8,  1)=(     0.99332557,     0.99332557,    -0.37869506,    -0.37869506) ppm
(dia2,par1)(k,t,iat1,spin)=(  1,  2,  8,  1)=(     0.65056825,     0.65056825,     0.14354524,     0.14354524) ppm
(dia2,par1)(k,t,iat1,spin)=(  2,  2,  8,  1)=(     3.80865110,     3.80865110,    -0.13408410,    -0.13408410) ppm
(dia2,par1)(k,t,iat1,spin)=(  3,  2,  8,  1)=(    -3.21582566,    -3.21582566,     1.19979055,     1.19979055) ppm
(dia2,par1)(k,t,iat1,spin)=(  1,  3,  8,  1)=(     1.42880042,     1.42880042,    -0.13775776,    -0.13775776) ppm
(dia2,par1)(k,t,iat1,spin)=(  2,  3,  8,  1)=(    -4.57618403,    -4.57618403,     0.44526490,     0.44526490) ppm
(dia2,par1)(k,t,iat1,spin)=(  3,  3,  8,  1)=(     1.24958148,     1.24958148,    -1.57008914,    -1.57008914) ppm
 Grid integrated density:      24.000004678584
 Requested integration accuracy:   0.10E-06
dia1(k,t,iat1,ispin)=(  1,  1,  9,  1)=(    19.41776603,    19.41776603) ppm
dia1(k,t,iat1,ispin)=(  1,  2,  9,  1)=(    -2.77238767,    -2.77238767) ppm
dia1(k,t,iat1,ispin)=(  1,  3,  9,  1)=(     3.42094370,     3.42094370) ppm
dia1(k,t,iat1,ispin)=(  2,  1,  9,  1)=(    -2.78720452,    -2.78720452) ppm
dia1(k,t,iat1,ispin)=(  2,  2,  9,  1)=(    27.55527109,    27.55527109) ppm
dia1(k,t,iat1,ispin)=(  2,  3,  9,  1)=(   -11.04878127,   -11.04878127) ppm
dia1(k,t,iat1,ispin)=(  3,  1,  9,  1)=(     3.31173876,     3.31173876) ppm
dia1(k,t,iat1,ispin)=(  3,  2,  9,  1)=(   -10.67800070,   -10.67800070) ppm
dia1(k,t,iat1,ispin)=(  3,  3,  9,  1)=(    32.11669025,    32.11669025) ppm
(dia2,par1)(k,t,iat1,spin)=(  1,  1,  9,  1)=(     5.69755976,     5.69755976,     0.28610979,     0.28610979) ppm
(dia2,par1)(k,t,iat1,spin)=(  2,  1,  9,  1)=(     0.65054505,     0.65054505,     0.13366807,     0.13366807) ppm
(dia2,par1)(k,t,iat1,spin)=(  3,  1,  9,  1)=(    -0.99338134,    -0.99338134,     0.37856676,     0.37856676) ppm
(dia2,par1)(k,t,iat1,spin)=(  1,  2,  9,  1)=(     0.65077009,     0.65077009,     0.14336164,     0.14336164) ppm
(dia2,par1)(k,t,iat1,spin)=(  2,  2,  9,  1)=(     3.80896621,     3.80896621,    -0.13413519,    -0.13413519) ppm
(dia2,par1)(k,t,iat1,spin)=(  3,  2,  9,  1)=(     3.21591046,     3.21591046,    -1.19978122,    -1.19978122) ppm
(dia2,par1)(k,t,iat1,spin)=(  1,  3,  9,  1)=(    -1.42902383,    -1.42902383,     0.13775332,     0.13775332) ppm
(dia2,par1)(k,t,iat1,spin)=(  2,  3,  9,  1)=(     4.57633327,     4.57633327,    -0.44526382,    -0.44526382) ppm
(dia2,par1)(k,t,iat1,spin)=(  3,  3,  9,  1)=(     1.24953929,     1.24953929,    -1.57017298,    -1.57017298) ppm
 Grid integrated density:      24.000004678584
 Requested integration accuracy:   0.10E-06

 Wrote ZORA NMR data to ./C1CC1_mol_5_conformer_0.zora_nmrcs

(nogshift,skip_gshiftAOev,done_Fji)=( 1,F,T)


         Total DFT energy =     -117.960079978598
      One electron energy =     -306.308443771210
           Coulomb energy =      131.400595206303
    Exchange-Corr. energy =      -18.544549728613
 Nuclear repulsion energy =       75.454018272556

             COSMO energy =        0.038300042366

       Scaling correction =        0.026374961394

 Numeric. integr. density =       24.000001666484

     Total iterative time =     27.7s


                                   COSMO solvation results
                                   -----------------------

                 gas phase energy =      -117.958419896977
                 sol phase energy =      -117.960079978598
 (electrostatic) solvation energy =         0.001660081621 (    1.04 kcal/mol)

 center of mass
 --------------
 x =   0.00000000 y =   0.00000000 z =   0.00000000

 moments of inertia (a.u.)
 ------------------
          90.210348034297          -0.000000000000           0.000000000000
          -0.000000000000          90.210348034297           0.000000000000
           0.000000000000           0.000000000000         144.977836904947

            Scalar ZORA NMR Shielding
            -------------------------


          -----------------------------------------
          Chemical Shielding Tensors (GIAO, in ppm)
          -----------------------------------------


 Read ZORA NMR data from ./C1CC1_mol_5_conformer_0.zora_nmrcs

    0 giaofock schwarz done =     100.00%
    0 giaofock schwarz done =     100.00%
                                NWChem CPHF Module
                                ------------------



 solvent parameters
 solvname_short: cdcl3   
 solvname_long:  unknown                            
 dielec:       78.4000
 dielecinf:     1.7769

          ---------------
          -cosmo- solvent
          ---------------
 Cosmo: York-Karplus, doi: 10.1021/jp992097l
 dielectric constant -eps-     =  78.40
 screen = (eps-1)/(eps    )    =   0.98724
 surface charge correction     = lagrangian
 -lineq- algorithm             =   0
 -bem- low  level              =   2
 -bem- from -octahedral-
 gaussian surface charge width =   0.98000
 degree of switching           =   1.00000
 switching function tolerance  =   0.00010
 atomic radii = 
 --------------
    1  6.000  2.000
    2  6.000  2.000
    3  6.000  2.000
    4  1.000  1.300
    5  1.000  1.300
    6  1.000  1.300
    7  1.000  1.300
    8  1.000  1.300
    9  1.000  1.300

 solvent accessible surface
 --------------------------

 ---------- ATOMIC COORDINATES (A.U.) ------------ VDWR(ANG.) --
     1   -1.61405662    0.36606953    0.00000000     2.000
     2    1.12405383    1.21477927    0.00000000     2.000
     3    0.49000280   -1.58084881    0.00000000     2.000
     4   -2.70050700    0.61247012   -1.71191102     1.300
     5   -2.70050700    0.61247012    1.71191102     1.300
     6    1.88066818    2.03247261    1.71191102     1.300
     7    1.88066818    2.03247261   -1.71191102     1.300
     8    0.81983882   -2.64494273   -1.71191102     1.300
     9    0.81983882   -2.64494273    1.71191102     1.300
 number of segments per atom =         32
 number of   points per atom =         32
 atom (   nspa,  nppa )
 ----------------------
    1 (     18,     0 )       0
    2 (     18,     0 )       0
    3 (     20,     0 )       0
    4 (     15,     0 )       0
    5 (     15,     0 )       0
    6 (     13,     0 )       0
    7 (     13,     0 )       0
    8 (     14,     0 )       0
    9 (     14,     0 )       0
 number of -cosmo- surface points =      140
 molecular surface =     92.415 angstrom**2
 molecular volume  =     52.864 angstrom**3
 G(cav/disp)       =      1.322 kcal/mol
 ...... end of -cosmo- initialization ......


  scftype          =     RHF 
  nclosed          =       12
  nopen            =        0
  variables        =      540
  # of vectors     =        3
  tolerance        = 0.10D-03
  level shift      = 0.00D+00
  max iterations   =       50
  max subspace     =       30

 SCF residual:    5.3748964981479415E-005


Iterative solution of linear equations
  No. of variables      540
  No. of equations        3
  Maximum subspace       30
        Iterations       50
       Convergence  1.0D-04
        Start time    290.6


   iter   nsub   residual    time
   ----  ------  --------  ---------
     1      3    3.41D-01     292.1
     2      6    5.26D-03     293.6
     3      9    1.81D-04     295.2
     4     12    7.43D-06     296.7

 Wrote CPHF data to ./C1CC1_mol_5_conformer_0.shieldcphf

 Calc. par tensor-> zora
      Atom:    1  H 
        Diamagnetic
     31.6691     -1.6199      7.1090
     -1.6199     24.8454     -1.6071
      7.1090     -1.6071     33.3831

        Paramagnetic
      1.8988      0.1960     -1.0418
      0.1960      2.7157      0.2397
     -1.0418      0.2397      3.2179

        Total Shielding Tensor
     33.5679     -1.4240      6.0672
     -1.4240     27.5611     -1.3674
      6.0672     -1.3674     36.6011

           isotropic =      32.5767
          anisotropy =      13.5504

          Principal Components and Axis System
                 1           2           3
               41.6103     28.8791     27.2406

      1         0.6119      0.7600      0.2191
      2        -0.1378     -0.1703      0.9757
      3         0.7788     -0.6273      0.0005



      Atom:    2  H 
        Diamagnetic
     31.6691     -1.6199     -7.1090
     -1.6199     24.8454      1.6072
     -7.1090      1.6072     33.3832

        Paramagnetic
      1.8987      0.1961      1.0418
      0.1961      2.7156     -0.2398
      1.0418     -0.2398      3.2178

        Total Shielding Tensor
     33.5678     -1.4238     -6.0672
     -1.4238     27.5610      1.3674
     -6.0672      1.3674     36.6010

           isotropic =      32.5766
          anisotropy =      13.5505

          Principal Components and Axis System
                 1           2           3
               41.6103     28.8790     27.2405

      1        -0.6119      0.7600      0.2190
      2         0.1378     -0.1702      0.9757
      3         0.7788      0.6273     -0.0006



      Atom:    3  H 
        Diamagnetic
     27.9843      3.7695      4.9615
      3.7695     28.5620      5.3590
      4.9615      5.3590     33.4294

        Paramagnetic
      2.3320     -0.4566     -0.7402
     -0.4566      2.2657     -0.7955
     -0.7402     -0.7955      3.1962

        Total Shielding Tensor
     30.3163      3.3128      4.2213
      3.3128     30.8277      4.5635
      4.2213      4.5635     36.6256

           isotropic =      32.5899
          anisotropy =      13.5525

          Principal Components and Axis System
                 1           2           3
               41.6248     28.8954     27.2493

      1         0.4256      0.5301     -0.7333
      2         0.4600      0.5712      0.6799
      3         0.7793     -0.6267     -0.0007



      Atom:    4  H 
        Diamagnetic
     27.9843      3.7695     -4.9615
      3.7695     28.5621     -5.3589
     -4.9615     -5.3589     33.4294

        Paramagnetic
      2.3318     -0.4567      0.7403
     -0.4567      2.2659      0.7955
      0.7403      0.7955      3.1962

        Total Shielding Tensor
     30.3161      3.3128     -4.2212
      3.3128     30.8280     -4.5635
     -4.2212     -4.5635     36.6256

           isotropic =      32.5899
          anisotropy =      13.5524

          Principal Components and Axis System
                 1           2           3
               41.6248     28.8955     27.2493

      1        -0.4256      0.5301     -0.7334
      2        -0.4600      0.5712      0.6798
      3         0.7793      0.6267      0.0007



      Atom:    5  H 
        Diamagnetic
     25.1146     -2.1292     -2.1552
     -2.1292     31.3634      6.9669
     -2.1552      6.9669     33.3647

        Paramagnetic
      2.6816      0.2529      0.3205
      0.2529      1.9319     -1.0270
      0.3205     -1.0270      3.2192

        Total Shielding Tensor
     27.7961     -1.8763     -1.8346
     -1.8763     33.2953      5.9399
     -1.8346      5.9399     36.5839

           isotropic =      32.5584
          anisotropy =      13.5502

          Principal Components and Axis System
                 1           2           3
               41.5919     28.8665     27.2170

      1        -0.1851     -0.2293      0.9556
      2         0.5994      0.7442      0.2947
      3         0.7788     -0.6273      0.0003



      Atom:    6  H 
        Diamagnetic
     25.1153     -2.1291      2.1551
     -2.1291     31.3642     -6.9673
      2.1551     -6.9673     33.3662

        Paramagnetic
      2.6818      0.2529     -0.3203
      0.2529      1.9322      1.0268
     -0.3203      1.0268      3.2197

        Total Shielding Tensor
     27.7971     -1.8762      1.8349
     -1.8762     33.2964     -5.9405
      1.8349     -5.9405     36.5859

           isotropic =      32.5598
          anisotropy =      13.5514

          Principal Components and Axis System
                 1           2           3
               41.5941     28.8674     27.2180

      1         0.1851     -0.2293      0.9556
      2        -0.5994      0.7443      0.2946
      3         0.7788      0.6273     -0.0003




 Task  times  cpu:       35.0s     wall:       40.4s


                                NWChem Input Module
                                -------------------


 Summary of allocated global arrays
-----------------------------------
  array 0 => double precision sf 1(57,57),  handle: -987 
  array 1 => double precision sf 1(57,57),  handle: -986 
  array 2 => double precision sf 1(57,57),  handle: -985 
  array 3 => double precision sf 1(57,57),  handle: -984 
  array 4 => double precision sf 1(57,57),  handle: -983 
  array 5 => double precision sf 1(57,57),  handle: -982 
  array 6 => double precision sf 1(57,57),  handle: -981 
  array 7 => double precision sf 1(57,57),  handle: -980 
  array 8 => double precision sf 1(57,57),  handle: -979 
  array 9 => double precision sf 1(57,57),  handle: -978 
  array 10 => double precision sf 1(57,57),  handle: -977 
  array 11 => double precision sf 1(57,57),  handle: -976 
  array 12 => double precision sf 1(57,57),  handle: -975 
  array 13 => double precision sf 1(57,57),  handle: -974 
  array 14 => double precision sf 1(57,57),  handle: -973 
  array 15 => double precision sf 1(57,57),  handle: -972 
  array 16 => double precision sf 1(57,57),  handle: -971 
  array 17 => double precision sf 1(57,57),  handle: -970 
  array 18 => double precision sf 1(57,57),  handle: -969 
  array 19 => double precision sf 1(57,57),  handle: -968 
  array 20 => double precision sf 1(57,57),  handle: -967 
  array 21 => double precision sf 1(57,57),  handle: -966 
  array 22 => double precision sf 1(57,57),  handle: -965 



                         GA Statistics for process    0
                         ------------------------------

       create   destroy   get      put      acc     scatter   gather  read&inc
calls: 4489     4328     1.05e+05 2.13e+04 3.60e+04   60        0     4545     
number of processes/call 0.00e+00 0.00e+00 0.00e+00 0.00e+00 0.00e+00
bytes total:             1.10e+08 2.22e+07 8.10e+07 2.24e+02 0.00e+00 3.64e+04
bytes remote:            9.48e+07 1.74e+07 7.30e+07 -1.12e+02 0.00e+00 0.00e+00
Max memory consumed for GA by this process: 375856 bytes

MA_summarize_allocated_blocks: starting scan ...
MA_summarize_allocated_blocks: scan completed: 0 heap blocks, 0 stack blocks
MA usage statistics:

	allocation statistics:
					      heap	     stack
					      ----	     -----
	current number of blocks	         0	         0
	maximum number of blocks	        66	        59
	current total bytes		         0	         0
	maximum total bytes		   1513472	  24871624
	maximum total K-bytes		      1514	     24872
	maximum total M-bytes		         2	        25


                                     CITATION
                                     --------
                Please cite the following reference when publishing
                           results obtained with NWChem:

          E. Apr, E. J. Bylaska, W. A. de Jong, N. Govind, K. Kowalski,
       T. P. Straatsma, M. Valiev, H. J. J. van Dam, Y. Alexeev, J. Anchell,
       V. Anisimov, F. W. Aquino, R. Atta-Fynn, J. Autschbach, N. P. Bauman,
     J. C. Becca, D. E. Bernholdt, K. Bhaskaran-Nair, S. Bogatko, P. Borowski,
        J. Boschen, J. Brabec, A. Bruner, E. Caut, Y. Chen, G. N. Chuev,
      C. J. Cramer, J. Daily, M. J. O. Deegan, T. H. Dunning Jr., M. Dupuis,
   K. G. Dyall, G. I. Fann, S. A. Fischer, A. Fonari, H. Frchtl, L. Gagliardi,
      J. Garza, N. Gawande, S. Ghosh, K. Glaesemann, A. W. Gtz, J. Hammond,
       V. Helms, E. D. Hermes, K. Hirao, S. Hirata, M. Jacquelin, L. Jensen,
   B. G. Johnson, H. Jnsson, R. A. Kendall, M. Klemm, R. Kobayashi, V. Konkov,
      S. Krishnamoorthy, M. Krishnan, Z. Lin, R. D. Lins, R. J. Littlefield,
      A. J. Logsdail, K. Lopata, W. Ma, A. V. Marenich, J. Martin del Campo,
   D. Mejia-Rodriguez, J. E. Moore, J. M. Mullin, T. Nakajima, D. R. Nascimento,
    J. A. Nichols, P. J. Nichols, J. Nieplocha, A. Otero-de-la-Roza, B. Palmer,
    A. Panyala, T. Pirojsirikul, B. Peng, R. Peverati, J. Pittner, L. Pollack,
   R. M. Richard, P. Sadayappan, G. C. Schatz, W. A. Shelton, D. W. Silverstein,
   D. M. A. Smith, T. A. Soares, D. Song, M. Swart, H. L. Taylor, G. S. Thomas,
            V. Tipparaju, D. G. Truhlar, K. Tsemekhman, T. Van Voorhis,
     . Vzquez-Mayagoitia, P. Verma, O. Villa, A. Vishnu, K. D. Vogiatzis,
        D. Wang, J. H. Weare, M. J. Williamson, T. L. Windus, K. Woliski,
        A. T. Wong, Q. Wu, C. Yang, Q. Yu, M. Zacharias, Z. Zhang, Y. Zhao,
                                and R. J. Harrison
                        "NWChem: Past, present, and future
                         J. Chem. Phys. 152, 184102 (2020)
                               doi:10.1063/5.0004997

                                      AUTHORS
                                      -------
     E. Apra, E. J. Bylaska, N. Govind, K. Kowalski, M. Valiev, W. A. de Jong,
      T. P. Straatsma, H. J. J. van Dam, D. Wang, T. L. Windus, N. P. Bauman,
       A. Panyala, J. Hammond, J. Autschbach, K. Bhaskaran-Nair, J. Brabec,
    K. Lopata, S. A. Fischer, S. Krishnamoorthy, M. Jacquelin, W. Ma, M. Klemm,
       O. Villa, Y. Chen, V. Anisimov, F. Aquino, S. Hirata, M. T. Hackler,
           Eric Hermes, L. Jensen, J. E. Moore, J. C. Becca, V. Konjkov,
            D. Mejia-Rodriguez, T. Risthaus, M. Malagoli, A. Marenich,
   A. Otero-de-la-Roza, J. Mullin, P. Nichols, R. Peverati, J. Pittner, Y. Zhao,
        P.-D. Fan, A. Fonari, M. J. Williamson, R. J. Harrison, J. R. Rehr,
      M. Dupuis, D. Silverstein, D. M. A. Smith, J. Nieplocha, V. Tipparaju,
      M. Krishnan, B. E. Van Kuiken, A. Vazquez-Mayagoitia, M. Swart, Q. Wu,
   T. Van Voorhis, A. A. Auer, M. Nooijen, L. D. Crosby, E. Brown, G. Cisneros,
     G. I. Fann, H. Fruchtl, J. Garza, K. Hirao, R. A. Kendall, J. A. Nichols,
       K. Tsemekhman, K. Wolinski, J. Anchell, D. E. Bernholdt, P. Borowski,
       T. Clark, D. Clerc, H. Dachsel, M. J. O. Deegan, K. Dyall, D. Elwood,
      E. Glendening, M. Gutowski, A. C. Hess, J. Jaffe, B. G. Johnson, J. Ju,
        R. Kobayashi, R. Kutteh, Z. Lin, R. Littlefield, X. Long, B. Meng,
      T. Nakajima, S. Niu, L. Pollack, M. Rosing, K. Glaesemann, G. Sandrone,
      M. Stave, H. Taylor, G. Thomas, J. H. van Lenthe, A. T. Wong, Z. Zhang.

 Total times  cpu:      263.4s     wall:      296.9s
