 argument  1 = C1CC1_mol_1_conformer_0.nw



============================== echo of input deck ==============================
start

title "Molecule conformer 0"

memory total 4000 mb

echo
geometry units angstroms
   C      0.8370    -0.2578     0.0058
   C     -0.1956     0.8510    -0.0673
   C     -0.6414    -0.5932     0.0616
   H      1.3616    -0.3326     0.9818
   H      1.3250    -0.4949    -0.9633
   H     -0.3323     1.2847    -1.0806
   H     -0.2957     1.4470     0.8645
   H     -1.0476    -1.0332    -0.8738
   H     -1.0110    -0.8710     1.0714
end


basis spherical
* library 6-311G
end

driver
  maxiter 500
  xyz final
end

relativistic
  zora on
  zora:cutoff_NMR 1d-8
  zora:cutoff 1d-30
end

dft
  direct
  grid fine
  xc B3LYP
  mult 1
  maxiter 1500
  noprint "final vectors analysis" multipole
end

task dft optimize

task dft freq

property
  shielding 6 4 5 6 7 8 9
end

cosmo
   solvent cdcl3
end

task dft property
================================================================================


                                         
                                         


             Northwest Computational Chemistry Package (NWChem) 7.0.2
             --------------------------------------------------------


                    Environmental Molecular Sciences Laboratory
                       Pacific Northwest National Laboratory
                                Richland, WA 99352

                              Copyright (c) 1994-2020
                       Pacific Northwest National Laboratory
                            Battelle Memorial Institute

             NWChem is an open-source computational chemistry package
                        distributed under the terms of the
                      Educational Community License (ECL) 2.0
             A copy of the license is included with this distribution
                              in the LICENSE.TXT file

                                  ACKNOWLEDGMENT
                                  --------------

            This software and its documentation were developed at the
            EMSL at Pacific Northwest National Laboratory, a multiprogram
            national laboratory, operated for the U.S. Department of Energy
            by Battelle under Contract Number DE-AC05-76RL01830. Support
            for this work was provided by the Department of Energy Office
            of Biological and Environmental Research, Office of Basic
            Energy Sciences, and the Office of Advanced Scientific Computing.


           Job information
           ---------------

    hostname        = ponder
    program         = nwchem
    date            = Fri Aug  2 16:40:09 2024

    compiled        = Sat_Apr_09_17:12:10_2022
    source          = /build/nwchem-f1f4gx/nwchem-7.0.2/build-openmpi
    nwchem branch   = 7.0.2
    nwchem revision = N/A
    ga revision     = 5.8.1
    use scalapack   = T
    input           = C1CC1_mol_1_conformer_0.nw
    prefix          = C1CC1_mol_1_conformer_0.
    data base       = ./C1CC1_mol_1_conformer_0.db
    status          = startup
    nproc           =       40
    time left       =     -1s



           Memory information
           ------------------

    heap     =  131071998 doubles =   1000.0 Mbytes
    stack    =  131071995 doubles =   1000.0 Mbytes
    global   =  262144000 doubles =   2000.0 Mbytes (distinct from heap & stack)
    total    =  524287993 doubles =   4000.0 Mbytes
    verify   = yes
    hardfail = no 


           Directory information
           ---------------------

  0 permanent = .
  0 scratch   = .




                                NWChem Input Module
                                -------------------


                               Molecule conformer 0
                               --------------------

 Scaling coordinates for geometry "geometry" by  1.889725989
 (inverse scale =  0.529177249)

 C3H symmetry detected

          ------
          auto-z
          ------
  no constraints, skipping    0.0000000000000000     
  no constraints, skipping    0.0000000000000000     


                             Geometry "geometry" -> ""
                             -------------------------

 Output coordinates in angstroms (scale by  1.889725989 to convert to a.u.)

  No.       Tag          Charge          X              Y              Z
 ---- ---------------- ---------- -------------- -------------- --------------
    1 C                    6.0000    -0.46650893    -0.74122334     0.00000000
    2 C                    6.0000     0.87517271    -0.03339692     0.00000000
    3 C                    6.0000    -0.40866378     0.77462026     0.00000000
    4 H                    1.0000    -0.74866846    -1.18964245     0.97611650
    5 H                    1.0000    -0.74866846    -1.18964245    -0.97611650
    6 H                    1.0000     1.40459481    -0.05354467    -0.97611650
    7 H                    1.0000     1.40459481    -0.05354467     0.97611650
    8 H                    1.0000    -0.65592636     1.24318713    -0.97611650
    9 H                    1.0000    -0.65592636     1.24318713     0.97611650

      Atomic Mass 
      ----------- 

      C                 12.000000
      H                  1.007825


 Effective nuclear repulsion energy (a.u.)      75.1282125807

            Nuclear Dipole moment (a.u.) 
            ----------------------------
        X                 Y               Z
 ---------------- ---------------- ----------------
     0.0000000000     0.0000000000     0.0000000000

      Symmetry information
      --------------------

 Group name             C3h       
 Group number             22
 Group order               6
 No. of unique centers     2

      Symmetry unique atoms

     1    4



                                Z-matrix (autoz)
                                -------- 

 Units are Angstrom for bonds and degrees for angles

      Type          Name      I     J     K     L     M      Value
      ----------- --------  ----- ----- ----- ----- ----- ----------
    1 Stretch                  1     2                       1.51695
    2 Stretch                  1     3                       1.51695
    3 Stretch                  1     4                       1.11063
    4 Stretch                  1     5                       1.11063
    5 Stretch                  2     3                       1.51695
    6 Stretch                  2     6                       1.11063
    7 Stretch                  2     7                       1.11063
    8 Stretch                  3     8                       1.11063
    9 Stretch                  3     9                       1.11063
   10 Bend                     1     2     3                60.00000
   11 Bend                     1     2     6               114.40264
   12 Bend                     1     2     7               114.40264
   13 Bend                     1     3     2                60.00000
   14 Bend                     1     3     8               114.39952
   15 Bend                     1     3     9               114.39952
   16 Bend                     2     1     3                60.00000
   17 Bend                     2     1     4               114.39952
   18 Bend                     2     1     5               114.39952
   19 Bend                     2     3     8               114.40264
   20 Bend                     2     3     9               114.40264
   21 Bend                     3     1     4               114.40264
   22 Bend                     3     1     5               114.40264
   23 Bend                     3     2     6               114.39952
   24 Bend                     3     2     7               114.39952
   25 Bend                     4     1     5               123.01656
   26 Bend                     6     2     7               123.01656
   27 Bend                     8     3     9               123.01656
   28 Torsion                  1     2     3     8        -105.18086
   29 Torsion                  1     2     3     9         105.18086
   30 Torsion                  1     3     2     6         105.18608
   31 Torsion                  1     3     2     7        -105.18608
   32 Torsion                  2     1     3     8         105.18608
   33 Torsion                  2     1     3     9        -105.18608
   34 Torsion                  2     3     1     4         105.18086
   35 Torsion                  2     3     1     5        -105.18086
   36 Torsion                  3     1     2     6        -105.18086
   37 Torsion                  3     1     2     7         105.18086
   38 Torsion                  3     2     1     4        -105.18608
   39 Torsion                  3     2     1     5         105.18608
   40 Torsion                  4     1     2     6         149.63305
   41 Torsion                  4     1     2     7          -0.00522
   42 Torsion                  4     1     3     8        -149.63305
   43 Torsion                  4     1     3     9          -0.00522
   44 Torsion                  5     1     2     6           0.00522
   45 Torsion                  5     1     2     7        -149.63305
   46 Torsion                  5     1     3     8           0.00522
   47 Torsion                  5     1     3     9         149.63305
   48 Torsion                  6     2     3     8           0.00522
   49 Torsion                  6     2     3     9        -149.63305
   50 Torsion                  7     2     3     8         149.63305
   51 Torsion                  7     2     3     9          -0.00522


            XYZ format geometry
            -------------------
     9
 geometry
 C                    -0.46650893    -0.74122334     0.00000000
 C                     0.87517271    -0.03339692     0.00000000
 C                    -0.40866378     0.77462026     0.00000000
 H                    -0.74866846    -1.18964245     0.97611650
 H                    -0.74866846    -1.18964245    -0.97611650
 H                     1.40459481    -0.05354467    -0.97611650
 H                     1.40459481    -0.05354467     0.97611650
 H                    -0.65592636     1.24318713    -0.97611650
 H                    -0.65592636     1.24318713     0.97611650

 ==============================================================================
                                internuclear distances
 ------------------------------------------------------------------------------
       center one      |      center two      | atomic units |  angstroms
 ------------------------------------------------------------------------------
    2 C                |   1 C                |     2.86661  |     1.51695
    3 C                |   1 C                |     2.86661  |     1.51695
    3 C                |   2 C                |     2.86661  |     1.51695
    4 H                |   1 C                |     2.09878  |     1.11063
    5 H                |   1 C                |     2.09878  |     1.11063
    6 H                |   2 C                |     2.09878  |     1.11063
    7 H                |   2 C                |     2.09878  |     1.11063
    8 H                |   3 C                |     2.09878  |     1.11063
    9 H                |   3 C                |     2.09878  |     1.11063
 ------------------------------------------------------------------------------
                         number of included internuclear distances:          9
 ==============================================================================



 ==============================================================================
                                 internuclear angles
 ------------------------------------------------------------------------------
        center 1       |       center 2       |       center 3       |  degrees
 ------------------------------------------------------------------------------
    1 C                |   2 C                |   3 C                |    60.00
    2 C                |   1 C                |   4 H                |   114.40
    2 C                |   1 C                |   5 H                |   114.40
    3 C                |   1 C                |   4 H                |   114.40
    3 C                |   1 C                |   5 H                |   114.40
    4 H                |   1 C                |   5 H                |   123.02
    2 C                |   1 C                |   3 C                |    60.00
    1 C                |   2 C                |   6 H                |   114.40
    1 C                |   2 C                |   7 H                |   114.40
    3 C                |   2 C                |   6 H                |   114.40
    3 C                |   2 C                |   7 H                |   114.40
    6 H                |   2 C                |   7 H                |   123.02
    3 C                |   1 C                |   2 C                |    60.00
    1 C                |   3 C                |   8 H                |   114.40
    1 C                |   3 C                |   9 H                |   114.40
    2 C                |   3 C                |   8 H                |   114.40
    2 C                |   3 C                |   9 H                |   114.40
    8 H                |   3 C                |   9 H                |   123.02
 ------------------------------------------------------------------------------
                            number of included internuclear angles:         18
 ==============================================================================





 Summary of "ao basis" -> "" (spherical)
 ------------------------------------------------------------------------------
       Tag                 Description            Shells   Functions and Types
 ---------------- ------------------------------  ------  ---------------------
 *                           6-311G                   on all atoms 




                           NWChem Geometry Optimization
                           ----------------------------




                               Molecule conformer 0


  no constraints, skipping    0.0000000000000000     
 maximum gradient threshold         (gmax) =   0.000450
 rms gradient threshold             (grms) =   0.000300
 maximum cartesian step threshold   (xmax) =   0.001800
 rms cartesian step threshold       (xrms) =   0.001200
 fixed trust radius                (trust) =   0.300000
 maximum step size to saddle      (sadstp) =   0.100000
 energy precision                  (eprec) =   5.0D-06
 maximum number of steps          (nptopt) =  500
 initial hessian option           (inhess) =    0
 line search option               (linopt) =    1
 hessian update option            (modupd) =    1
 saddle point option              (modsad) =    0
 initial eigen-mode to follow     (moddir) =    0
 initial variable to follow       (vardir) =    0
 follow first negative mode     (firstneg) =    T
 apply conjugacy                    (opcg) =    F
 source of zmatrix                         =   autoz   


          -------------------
          Energy Minimization
          -------------------


 Names of Z-matrix variables 
    1              2              3              4              5         
    6              7              8              9             10         
   11             12             13             14             15         
   16             17             18             19             20         
   21             22             23             24             25         
   26             27             28             29             30         
   31             32             33             34             35         
   36             37             38             39             40         
   41             42             43             44             45         
   46             47             48             49             50         
   51         

 Variables with the same non-blank name are constrained to be equal


 Using diagonal initial Hessian 
 Scaling for Hessian diagonals: bonds = 1.00  angles = 0.25  torsions = 0.10

          --------
          Step   0
          --------


                         Geometry "geometry" -> "geometry"
                         ---------------------------------

 Output coordinates in angstroms (scale by  1.889725989 to convert to a.u.)

  No.       Tag          Charge          X              Y              Z
 ---- ---------------- ---------- -------------- -------------- --------------
    1 C                    6.0000    -0.46650893    -0.74122334     0.00000000
    2 C                    6.0000     0.87517271    -0.03339692     0.00000000
    3 C                    6.0000    -0.40866378     0.77462026     0.00000000
    4 H                    1.0000    -0.74866846    -1.18964245     0.97611650
    5 H                    1.0000    -0.74866846    -1.18964245    -0.97611650
    6 H                    1.0000     1.40459481    -0.05354467    -0.97611650
    7 H                    1.0000     1.40459481    -0.05354467     0.97611650
    8 H                    1.0000    -0.65592636     1.24318713    -0.97611650
    9 H                    1.0000    -0.65592636     1.24318713     0.97611650

      Atomic Mass 
      ----------- 

      C                 12.000000
      H                  1.007825


 Effective nuclear repulsion energy (a.u.)      75.1282125807

            Nuclear Dipole moment (a.u.) 
            ----------------------------
        X                 Y               Z
 ---------------- ---------------- ----------------
     0.0000000000     0.0000000000     0.0000000000

      Symmetry information
      --------------------

 Group name             C3h       
 Group number             22
 Group order               6
 No. of unique centers     2

      Symmetry unique atoms

     1    4


                                 NWChem DFT Module
                                 -----------------


                               Molecule conformer 0


                      Basis "ao basis" -> "ao basis" (spherical)
                      -----
  C (Carbon)
  ----------
            Exponent  Coefficients 
       -------------- ---------------------------------------------------------
  1 S  4.56324000E+03  0.001967
  1 S  6.82024000E+02  0.015231
  1 S  1.54973000E+02  0.076127
  1 S  4.44553000E+01  0.260801
  1 S  1.30290000E+01  0.616462
  1 S  1.82773000E+00  0.221006

  2 S  2.09642000E+01  0.114660
  2 S  4.80331000E+00  0.919999
  2 S  1.45933000E+00 -0.003031

  3 P  2.09642000E+01  0.040249
  3 P  4.80331000E+00  0.237594
  3 P  1.45933000E+00  0.815854

  4 S  4.83456000E-01  1.000000

  5 P  4.83456000E-01  1.000000

  6 S  1.45585000E-01  1.000000

  7 P  1.45585000E-01  1.000000

  H (Hydrogen)
  ------------
            Exponent  Coefficients 
       -------------- ---------------------------------------------------------
  1 S  3.38650000E+01  0.025494
  1 S  5.09479000E+00  0.190373
  1 S  1.15879000E+00  0.852161

  2 S  3.25840000E-01  1.000000

  3 S  1.02741000E-01  1.000000



 Summary of "ao basis" -> "ao basis" (spherical)
 ------------------------------------------------------------------------------
       Tag                 Description            Shells   Functions and Types
 ---------------- ------------------------------  ------  ---------------------
 C                           6-311G                  7       13   4s3p
 H                           6-311G                  3        3   3s




 Summary of "ao basis" -> "ao basis" (spherical)
 ------------------------------------------------------------------------------
       Tag                 Description            Shells   Functions and Types
 ---------------- ------------------------------  ------  ---------------------
 C                           6-311G                  7       13   4s3p
 H                           6-311G                  3        3   3s


      Symmetry analysis of basis
      --------------------------

        a'         13
        e'+        13
        e'-        13
        a"          6
        e"+         6
        e"-         6

  Caching 1-el integrals 
  Rotation of axis 

            General Information
            -------------------
          SCF calculation type: DFT
          Wavefunction type:  closed shell.
          No. of atoms     :     9
          No. of electrons :    24
           Alpha electrons :    12
            Beta electrons :    12
          Charge           :     0
          Spin multiplicity:     1
          Use of symmetry is: on ; symmetry adaption is: on 
          Maximum number of iterations: ***
          This is a Direct SCF calculation.
          AO basis - number of functions:    57
                     number of shells:    39
          Convergence on energy requested:  1.00D-06
          Convergence on density requested:  1.00D-05
          Convergence on gradient requested:  5.00D-04

              XC Information
              --------------
                         B3LYP Method XC Potential
                     Hartree-Fock (Exact) Exchange  0.200          
                        Slater Exchange Functional  0.800 local    
                    Becke 1988 Exchange Functional  0.720 non-local
              Lee-Yang-Parr Correlation Functional  0.810          
                  VWN I RPA Correlation Functional  0.190 local    

             Grid Information
             ----------------
          Grid used for XC integration:  fine      
          Radial quadrature: Mura-Knowles        
          Angular quadrature: Lebedev. 
          Tag              B.-S. Rad. Rad. Pts. Rad. Cut. Ang. Pts.
          ---              ---------- --------- --------- ---------
          C                   0.70       70           8.0       590
          H                   0.35       60          10.0       590
          Grid pruning is: on 
          Number of quadrature shells:   130
          Spatial weights used:  Erf1

          Convergence Information
          -----------------------
          Convergence aids based upon iterative change in 
          total energy or number of iterations. 
          Levelshifting, if invoked, occurs when the 
          HOMO/LUMO gap drops below (HL_TOL):  1.00D-02
          DIIS, if invoked, will attempt to extrapolate 
          using up to (NFOCK): 10 stored Fock matrices.

                    Damping( 0%)  Levelshifting(0.5)       DIIS
                  --------------- ------------------- ---------------
          dE  on:    start            ASAP                start   
          dE off:    2 iters        *** iters           *** iters 


      Screening Tolerance Information
      -------------------------------
          Density screening/tol_rho:  1.00D-10
          AO Gaussian exp screening on grid/accAOfunc:  14
          CD Gaussian exp screening on grid/accCDfunc:  20
          XC Gaussian exp screening on grid/accXCfunc:  20
          Schwarz screening/accCoul:  1.00D-08

          Performing ZORA calculations
          ----------------------------


      Superposition of Atomic Density Guess
      -------------------------------------

 Sum of atomic energies:        -116.00451404

 Read atomic ZORA corrections from ./C1CC1_mol_1_conformer_0.zora_sf

 dft_zora_read: failed to open./C1CC1_mol_1_conformer_0.zora_sf
 Forcing recalculation of ZORA corrections
       Generating atomic ZORA corrections
       ----------------------------------

 In dft_scf:: zora:Knucl= F

 Grid_pts file          = ./C1CC1_mol_1_conformer_0.gridpts.00
 Record size in doubles =  12289        No. of grid_pts per rec  =   3070
 Max. records in memory =      2        Max. recs in file   =     13628


 Wrote atomic ZORA corrections to ./C1CC1_mol_1_conformer_0.zora_sf


      Superposition of Atomic Density Guess
      -------------------------------------

 Sum of atomic energies:        -116.00451404

      Non-variational initial energy
      ------------------------------

 Total energy =    -118.136895
 1-e energy   =    -302.453202
 2-e energy   =     109.188094
 HOMO         =      -0.346980
 LUMO         =       0.077795


      Symmetry analysis of molecular orbitals - initial
      -------------------------------------------------

  Numbering of irreducible representations: 

     1 a'          2 e'+         3 e'-         4 a"          5 e"+     
     6 e"-     

  Orbital symmetries:

     1 a'          2 e'+         3 e'+         4 a'          5 e'+     
     6 e'+         7 a"          8 a'          9 e"+        10 e"+     
    11 e'+        12 e'+        13 a'         14 a"         15 e'+     
    16 e'+        17 a'         18 e"+        19 e"+        20 e'+     
    21 e'+        22 a'      

   Time after variat. SCF:      3.4
   Time prior to 1st pass:      3.4

           Memory utilization after 1st SCF pass: 
           Heap Space remaining (MW):      131.04           131041678
          Stack Space remaining (MW):      131.06           131064900

   convergence    iter        energy       DeltaE   RMS-Dens  Diis-err    time
 ---------------- ----- ----------------- --------- --------- ---------  ------
 d= 0,ls=0.0,diis     1   -117.9144571942 -1.93D+02  6.25D-03  4.05D-01     4.5
 d= 0,ls=0.0,diis     2   -117.9476935096 -3.32D-02  1.02D-03  1.72D-03     5.8
 d= 0,ls=0.0,diis     3   -117.9478901610 -1.97D-04  2.23D-04  2.03D-04     6.8
 d= 0,ls=0.0,diis     4   -117.9479011686 -1.10D-05  1.22D-04  1.07D-04     8.1
 d= 0,ls=0.0,diis     5   -117.9479154410 -1.43D-05  6.39D-06  6.33D-08     9.4
 d= 0,ls=0.0,diis     6   -117.9479154503 -9.26D-09  1.09D-06  7.72D-10    10.7
(nogshift,skip_gshiftAOev,done_Fji)=( 1,F,F)


         Total DFT energy =     -117.947915450295
      One electron energy =     -305.643933417870
           Coulomb energy =      131.052222003109
    Exchange-Corr. energy =      -18.484416616274
 Nuclear repulsion energy =       75.128212580740

       Scaling correction =        0.026258503064

 Numeric. integr. density =       23.999998309944

     Total iterative time =      7.4s



                  Occupations of the irreducible representations
                  ----------------------------------------------

                     irrep           alpha         beta
                     --------     --------     --------
                     a'                3.0          3.0
                     e'+               6.0          6.0
                     e'-               0.0          0.0
                     a"                1.0          1.0
                     e"+               2.0          2.0
                     e"-               0.0          0.0


 center of mass
 --------------
 x =   0.00000000 y =   0.00000000 z =   0.00000000

 moments of inertia (a.u.)
 ------------------
          91.211994986560          -0.000000000000           0.000000000000
          -0.000000000000          91.211994986560           0.000000000000
           0.000000000000           0.000000000000         141.274225308615

            General Information
            -------------------
          SCF calculation type: DFT
          Wavefunction type:  closed shell.
          No. of atoms     :     9
          No. of electrons :    24
           Alpha electrons :    12
            Beta electrons :    12
          Charge           :     0
          Spin multiplicity:     1
          Use of symmetry is: on ; symmetry adaption is: on 
          Maximum number of iterations: ***
          This is a Direct SCF calculation.
          AO basis - number of functions:    57
                     number of shells:    39
          Convergence on energy requested:  1.00D-06
          Convergence on density requested:  1.00D-05
          Convergence on gradient requested:  5.00D-04

              XC Information
              --------------
                         B3LYP Method XC Potential
                     Hartree-Fock (Exact) Exchange  0.200          
                        Slater Exchange Functional  0.800 local    
                    Becke 1988 Exchange Functional  0.720 non-local
              Lee-Yang-Parr Correlation Functional  0.810          
                  VWN I RPA Correlation Functional  0.190 local    

             Grid Information
             ----------------
          Grid used for XC integration:  fine      
          Radial quadrature: Mura-Knowles        
          Angular quadrature: Lebedev. 
          Tag              B.-S. Rad. Rad. Pts. Rad. Cut. Ang. Pts.
          ---              ---------- --------- --------- ---------
          C                   0.70       70           8.0       590
          H                   0.35       60          10.0       590
          Grid pruning is: on 
          Number of quadrature shells:   130
          Spatial weights used:  Erf1

          Convergence Information
          -----------------------
          Convergence aids based upon iterative change in 
          total energy or number of iterations. 
          Levelshifting, if invoked, occurs when the 
          HOMO/LUMO gap drops below (HL_TOL):  1.00D-02
          DIIS, if invoked, will attempt to extrapolate 
          using up to (NFOCK): 10 stored Fock matrices.

                    Damping( 0%)  Levelshifting(0.5)       DIIS
                  --------------- ------------------- ---------------
          dE  on:    start            ASAP                start   
          dE off:    2 iters        *** iters           *** iters 


      Screening Tolerance Information
      -------------------------------
          Density screening/tol_rho:  1.00D-10
          AO Gaussian exp screening on grid/accAOfunc:  14
          CD Gaussian exp screening on grid/accCDfunc:  20
          XC Gaussian exp screening on grid/accXCfunc:  20
          Schwarz screening/accCoul:  1.00D-08



                            NWChem DFT Gradient Module
                            --------------------------


                               Molecule conformer 0



  charge          =   0.00
  wavefunction    = closed shell

  Rotation of axis 
  Using symmetry


                         DFT ENERGY GRADIENTS

    atom               coordinates                        gradient
                 x          y          z           x          y          z
   1 C      -0.881574  -1.400709   0.000000    0.003755   0.006000   0.000000
   2 C       1.653837  -0.063111   0.000000   -0.007074   0.000252   0.000000
   3 C      -0.772263   1.463820   0.000000    0.003318  -0.006252   0.000000
   4 H      -1.414778  -2.248098   1.844593    0.001162   0.001843   0.023885
   5 H      -1.414778  -2.248098  -1.844593    0.001162   0.001843  -0.023885
   6 H       2.654299  -0.101185  -1.844593   -0.002177   0.000085  -0.023885
   7 H       2.654299  -0.101185   1.844593   -0.002177   0.000085   0.023885
   8 H      -1.239521   2.349283  -1.844593    0.001015  -0.001928  -0.023885
   9 H      -1.239521   2.349283   1.844593    0.001015  -0.001928   0.023885

                 ----------------------------------------
                 |  Time  |  1-e(secs)   |  2-e(secs)   |
                 ----------------------------------------
                 |  CPU   |       0.00   |       0.02   |
                 ----------------------------------------
                 |  WALL  |       0.00   |       0.02   |
                 ----------------------------------------
  no constraints, skipping    0.0000000000000000     

@ Step       Energy      Delta E   Gmax     Grms     Xrms     Xmax   Walltime
@ ---- ---------------- -------- -------- -------- -------- -------- --------
@    0    -117.94791545  0.0D+00  0.01995  0.00735  0.00000  0.00000     11.7
                                                                    



                                Z-matrix (autoz)
                                -------- 

 Units are Angstrom for bonds and degrees for angles

      Type          Name      I     J     K     L     M      Value     Gradient
      ----------- --------  ----- ----- ----- ----- ----- ---------- ----------
    1 Stretch                  1     2                       1.51695   -0.00660
    2 Stretch                  1     3                       1.51695   -0.00660
    3 Stretch                  1     4                       1.11063    0.01995
    4 Stretch                  1     5                       1.11063    0.01995
    5 Stretch                  2     3                       1.51695   -0.00660
    6 Stretch                  2     6                       1.11063    0.01995
    7 Stretch                  2     7                       1.11063    0.01995
    8 Stretch                  3     8                       1.11063    0.01995
    9 Stretch                  3     9                       1.11063    0.01995
   10 Bend                     1     2     3                60.00000    0.00000
   11 Bend                     1     2     6               114.40264   -0.00221
   12 Bend                     1     2     7               114.40264   -0.00221
   13 Bend                     1     3     2                60.00000   -0.00000
   14 Bend                     1     3     8               114.39952   -0.00222
   15 Bend                     1     3     9               114.39952   -0.00222
   16 Bend                     2     1     3                60.00000   -0.00000
   17 Bend                     2     1     4               114.39952   -0.00222
   18 Bend                     2     1     5               114.39952   -0.00222
   19 Bend                     2     3     8               114.40264   -0.00221
   20 Bend                     2     3     9               114.40264   -0.00221
   21 Bend                     3     1     4               114.40264   -0.00221
   22 Bend                     3     1     5               114.40264   -0.00221
   23 Bend                     3     2     6               114.39952   -0.00222
   24 Bend                     3     2     7               114.39952   -0.00222
   25 Bend                     4     1     5               123.01656    0.00530
   26 Bend                     6     2     7               123.01656    0.00530
   27 Bend                     8     3     9               123.01656    0.00530
   28 Torsion                  1     2     3     8        -105.18086    0.00160
   29 Torsion                  1     2     3     9         105.18086   -0.00160
   30 Torsion                  1     3     2     6         105.18608   -0.00160
   31 Torsion                  1     3     2     7        -105.18608    0.00160
   32 Torsion                  2     1     3     8         105.18608   -0.00160
   33 Torsion                  2     1     3     9        -105.18608    0.00160
   34 Torsion                  2     3     1     4         105.18086   -0.00160
   35 Torsion                  2     3     1     5        -105.18086    0.00160
   36 Torsion                  3     1     2     6        -105.18086    0.00160
   37 Torsion                  3     1     2     7         105.18086   -0.00160
   38 Torsion                  3     2     1     4        -105.18608    0.00160
   39 Torsion                  3     2     1     5         105.18608   -0.00160
   40 Torsion                  4     1     2     6         149.63305    0.00320
   41 Torsion                  4     1     2     7          -0.00522   -0.00000
   42 Torsion                  4     1     3     8        -149.63305   -0.00320
   43 Torsion                  4     1     3     9          -0.00522   -0.00000
   44 Torsion                  5     1     2     6           0.00522    0.00000
   45 Torsion                  5     1     2     7        -149.63305   -0.00320
   46 Torsion                  5     1     3     8           0.00522    0.00000
   47 Torsion                  5     1     3     9         149.63305    0.00320
   48 Torsion                  6     2     3     8           0.00522    0.00000
   49 Torsion                  6     2     3     9        -149.63305   -0.00320
   50 Torsion                  7     2     3     8         149.63305    0.00320
   51 Torsion                  7     2     3     9          -0.00522   -0.00000

 Restricting large step in mode   11 eval= 4.4D-02 step=-3.5D-01 new=-3.0D-01
  no constraints, skipping    0.0000000000000000     
  no constraints, skipping    0.0000000000000000     
  no constraints, skipping    0.0000000000000000     
  no constraints, skipping    0.0000000000000000     
  no constraints, skipping    0.0000000000000000     
  no constraints, skipping    0.0000000000000000     
  no constraints, skipping    0.0000000000000000     
  no constraints, skipping    0.0000000000000000     

                                 NWChem DFT Module
                                 -----------------


                               Molecule conformer 0




 Summary of "ao basis" -> "ao basis" (spherical)
 ------------------------------------------------------------------------------
       Tag                 Description            Shells   Functions and Types
 ---------------- ------------------------------  ------  ---------------------
 C                           6-311G                  7       13   4s3p
 H                           6-311G                  3        3   3s


      Symmetry analysis of basis
      --------------------------

        a'         13
        e'+        13
        e'-        13
        a"          6
        e"+         6
        e"-         6

  Caching 1-el integrals 
  Rotation of axis 

            General Information
            -------------------
          SCF calculation type: DFT
          Wavefunction type:  closed shell.
          No. of atoms     :     9
          No. of electrons :    24
           Alpha electrons :    12
            Beta electrons :    12
          Charge           :     0
          Spin multiplicity:     1
          Use of symmetry is: on ; symmetry adaption is: on 
          Maximum number of iterations: ***
          This is a Direct SCF calculation.
          AO basis - number of functions:    57
                     number of shells:    39
          Convergence on energy requested:  1.00D-06
          Convergence on density requested:  1.00D-05
          Convergence on gradient requested:  5.00D-04

              XC Information
              --------------
                         B3LYP Method XC Potential
                     Hartree-Fock (Exact) Exchange  0.200          
                        Slater Exchange Functional  0.800 local    
                    Becke 1988 Exchange Functional  0.720 non-local
              Lee-Yang-Parr Correlation Functional  0.810          
                  VWN I RPA Correlation Functional  0.190 local    

             Grid Information
             ----------------
          Grid used for XC integration:  fine      
          Radial quadrature: Mura-Knowles        
          Angular quadrature: Lebedev. 
          Tag              B.-S. Rad. Rad. Pts. Rad. Cut. Ang. Pts.
          ---              ---------- --------- --------- ---------
          C                   0.70       70           8.0       590
          H                   0.35       60          10.0       590
          Grid pruning is: on 
          Number of quadrature shells:   130
          Spatial weights used:  Erf1

          Convergence Information
          -----------------------
          Convergence aids based upon iterative change in 
          total energy or number of iterations. 
          Levelshifting, if invoked, occurs when the 
          HOMO/LUMO gap drops below (HL_TOL):  1.00D-02
          DIIS, if invoked, will attempt to extrapolate 
          using up to (NFOCK): 10 stored Fock matrices.

                    Damping( 0%)  Levelshifting(0.5)       DIIS
                  --------------- ------------------- ---------------
          dE  on:    start            ASAP                start   
          dE off:    2 iters        *** iters           *** iters 


      Screening Tolerance Information
      -------------------------------
          Density screening/tol_rho:  1.00D-10
          AO Gaussian exp screening on grid/accAOfunc:  14
          CD Gaussian exp screening on grid/accCDfunc:  20
          XC Gaussian exp screening on grid/accXCfunc:  20
          Schwarz screening/accCoul:  1.00D-08

          Performing ZORA calculations
          ----------------------------


      Superposition of Atomic Density Guess
      -------------------------------------

 Sum of atomic energies:        -116.00451404

 Read atomic ZORA corrections from ./C1CC1_mol_1_conformer_0.zora_sf

 Forcing recalculation of ZORA corrections
       Generating atomic ZORA corrections
       ----------------------------------

 In dft_scf:: zora:Knucl= F

 Grid_pts file          = ./C1CC1_mol_1_conformer_0.gridpts.00
 Record size in doubles =  12289        No. of grid_pts per rec  =   3070
 Max. records in memory =      2        Max. recs in file   =     13628


 Wrote atomic ZORA corrections to ./C1CC1_mol_1_conformer_0.zora_sf


 Loading old vectors from job with title :

Molecule conformer 0


      Symmetry analysis of molecular orbitals - initial
      -------------------------------------------------

  Numbering of irreducible representations: 

     1 a'          2 e'+         3 e'-         4 a"          5 e"+     
     6 e"-     

  Orbital symmetries:

     1 a'          2 e'+         3 e'+         4 a'          5 e'+     
     6 e'+         7 a"          8 a'          9 e"+        10 e"+     
    11 e'+        12 e'+        13 a'         14 a"         15 e'+     
    16 e'+        17 a'         18 e"+        19 e"+        20 e'+     
    21 e'+        22 a'      

   Time after variat. SCF:     17.6
   Time prior to 1st pass:     17.6

           Memory utilization after 1st SCF pass: 
           Heap Space remaining (MW):      131.04           131041678
          Stack Space remaining (MW):      131.06           131064900

   convergence    iter        energy       DeltaE   RMS-Dens  Diis-err    time
 ---------------- ----- ----------------- --------- --------- ---------  ------
 d= 0,ls=0.0,diis     1   -117.9542559895 -1.93D+02  2.09D-03  9.50D-03    19.0
 d= 0,ls=0.0,diis     2   -117.9552624799 -1.01D-03  6.67D-04  1.73D-03    20.4
 d= 0,ls=0.0,diis     3   -117.9553917407 -1.29D-04  3.17D-04  7.57D-04    21.9
 d= 0,ls=0.0,diis     4   -117.9554902238 -9.85D-05  3.53D-05  1.30D-06    23.3
 d= 0,ls=0.0,diis     5   -117.9554904105 -1.87D-07  2.24D-06  1.21D-08    24.6
(nogshift,skip_gshiftAOev,done_Fji)=( 1,F,F)


         Total DFT energy =     -117.955490410523
      One electron energy =     -306.233850454879
           Coulomb energy =      131.376210515926
    Exchange-Corr. energy =      -18.541927804124
 Nuclear repulsion energy =       75.444077332554

       Scaling correction =        0.026239160185

 Numeric. integr. density =       23.999998762993

     Total iterative time =      7.1s



                  Occupations of the irreducible representations
                  ----------------------------------------------

                     irrep           alpha         beta
                     --------     --------     --------
                     a'                3.0          3.0
                     e'+               6.0          6.0
                     e'-               0.0          0.0
                     a"                1.0          1.0
                     e"+               2.0          2.0
                     e"-               0.0          0.0


 center of mass
 --------------
 x =  -0.00000000 y =  -0.00000000 z =   0.00000000

 moments of inertia (a.u.)
 ------------------
          90.558733606657           0.000000000000           0.000000000000
           0.000000000000          90.558733606657           0.000000000000
           0.000000000000           0.000000000000         143.457877721976
 Line search: 
     step= 1.00 grad=-1.2D-02 hess= 4.5D-03 energy=   -117.955490 mode=downhill
 new step= 1.33                   predicted energy=   -117.955993
  no constraints, skipping    0.0000000000000000     
  no constraints, skipping    0.0000000000000000     
  no constraints, skipping    0.0000000000000000     
  no constraints, skipping    0.0000000000000000     
  no constraints, skipping    0.0000000000000000     
  no constraints, skipping    0.0000000000000000     
  no constraints, skipping    0.0000000000000000     
  no constraints, skipping    0.0000000000000000     

          --------
          Step   1
          --------


                         Geometry "geometry" -> "geometry"
                         ---------------------------------

 Output coordinates in angstroms (scale by  1.889725989 to convert to a.u.)

  No.       Tag          Charge          X              Y              Z
 ---- ---------------- ---------- -------------- -------------- --------------
    1 C                    6.0000    -0.47030089    -0.74726967     0.00000000
    2 C                    6.0000     0.88230496    -0.03365769     0.00000000
    3 C                    6.0000    -0.41200407     0.78092735     0.00000000
    4 H                    1.0000    -0.75974324    -1.20723376     0.91979810
    5 H                    1.0000    -0.75974324    -1.20723376    -0.91979810
    6 H                    1.0000     1.42536673    -0.05434007    -0.91979810
    7 H                    1.0000     1.42536673    -0.05434007     0.91979810
    8 H                    1.0000    -0.66562348     1.26157383    -0.91979810
    9 H                    1.0000    -0.66562348     1.26157383     0.91979810

      Atomic Mass 
      ----------- 

      C                 12.000000
      H                  1.007825


 Effective nuclear repulsion energy (a.u.)      75.5587607678

            Nuclear Dipole moment (a.u.) 
            ----------------------------
        X                 Y               Z
 ---------------- ---------------- ----------------
     0.0000000000    -0.0000000000     0.0000000000

      Symmetry information
      --------------------

 Group name             C3h       
 Group number             22
 Group order               6
 No. of unique centers     2

      Symmetry unique atoms

     1    4


                                 NWChem DFT Module
                                 -----------------


                               Molecule conformer 0




 Summary of "ao basis" -> "ao basis" (spherical)
 ------------------------------------------------------------------------------
       Tag                 Description            Shells   Functions and Types
 ---------------- ------------------------------  ------  ---------------------
 C                           6-311G                  7       13   4s3p
 H                           6-311G                  3        3   3s


      Symmetry analysis of basis
      --------------------------

        a'         13
        e'+        13
        e'-        13
        a"          6
        e"+         6
        e"-         6

  Caching 1-el integrals 
  Rotation of axis 

            General Information
            -------------------
          SCF calculation type: DFT
          Wavefunction type:  closed shell.
          No. of atoms     :     9
          No. of electrons :    24
           Alpha electrons :    12
            Beta electrons :    12
          Charge           :     0
          Spin multiplicity:     1
          Use of symmetry is: on ; symmetry adaption is: on 
          Maximum number of iterations: ***
          This is a Direct SCF calculation.
          AO basis - number of functions:    57
                     number of shells:    39
          Convergence on energy requested:  1.00D-06
          Convergence on density requested:  1.00D-05
          Convergence on gradient requested:  5.00D-04

              XC Information
              --------------
                         B3LYP Method XC Potential
                     Hartree-Fock (Exact) Exchange  0.200          
                        Slater Exchange Functional  0.800 local    
                    Becke 1988 Exchange Functional  0.720 non-local
              Lee-Yang-Parr Correlation Functional  0.810          
                  VWN I RPA Correlation Functional  0.190 local    

             Grid Information
             ----------------
          Grid used for XC integration:  fine      
          Radial quadrature: Mura-Knowles        
          Angular quadrature: Lebedev. 
          Tag              B.-S. Rad. Rad. Pts. Rad. Cut. Ang. Pts.
          ---              ---------- --------- --------- ---------
          C                   0.70       70           8.0       590
          H                   0.35       60          10.0       590
          Grid pruning is: on 
          Number of quadrature shells:   130
          Spatial weights used:  Erf1

          Convergence Information
          -----------------------
          Convergence aids based upon iterative change in 
          total energy or number of iterations. 
          Levelshifting, if invoked, occurs when the 
          HOMO/LUMO gap drops below (HL_TOL):  1.00D-02
          DIIS, if invoked, will attempt to extrapolate 
          using up to (NFOCK): 10 stored Fock matrices.

                    Damping( 0%)  Levelshifting(0.5)       DIIS
                  --------------- ------------------- ---------------
          dE  on:    start            ASAP                start   
          dE off:    2 iters        *** iters           *** iters 


      Screening Tolerance Information
      -------------------------------
          Density screening/tol_rho:  1.00D-10
          AO Gaussian exp screening on grid/accAOfunc:  14
          CD Gaussian exp screening on grid/accCDfunc:  20
          XC Gaussian exp screening on grid/accXCfunc:  20
          Schwarz screening/accCoul:  1.00D-08

          Performing ZORA calculations
          ----------------------------


      Superposition of Atomic Density Guess
      -------------------------------------

 Sum of atomic energies:        -116.00451404

 Read atomic ZORA corrections from ./C1CC1_mol_1_conformer_0.zora_sf

 Forcing recalculation of ZORA corrections
       Generating atomic ZORA corrections
       ----------------------------------

 In dft_scf:: zora:Knucl= F

 Grid_pts file          = ./C1CC1_mol_1_conformer_0.gridpts.00
 Record size in doubles =  12289        No. of grid_pts per rec  =   3070
 Max. records in memory =      2        Max. recs in file   =     13628


 Wrote atomic ZORA corrections to ./C1CC1_mol_1_conformer_0.zora_sf


 Loading old vectors from job with title :

Molecule conformer 0


      Symmetry analysis of molecular orbitals - initial
      -------------------------------------------------

  Numbering of irreducible representations: 

     1 a'          2 e'+         3 e'-         4 a"          5 e"+     
     6 e"-     

  Orbital symmetries:

     1 a'          2 e'+         3 e'+         4 a'          5 e'+     
     6 e'+         7 a"          8 a'          9 e"+        10 e"+     
    11 e'+        12 e'+        13 a'         14 a"         15 e'+     
    16 e'+        17 a'         18 e"+        19 e"+        20 e'+     
    21 e'+        22 a'      

   Time after variat. SCF:     30.3
   Time prior to 1st pass:     30.3

           Memory utilization after 1st SCF pass: 
           Heap Space remaining (MW):      131.04           131041678
          Stack Space remaining (MW):      131.06           131064900

   convergence    iter        energy       DeltaE   RMS-Dens  Diis-err    time
 ---------------- ----- ----------------- --------- --------- ---------  ------
 d= 0,ls=0.0,diis     1   -117.9557052160 -1.94D+02  6.79D-04  1.11D-03    31.7
 d= 0,ls=0.0,diis     2   -117.9558212942 -1.16D-04  2.21D-04  1.92D-04    33.2
 d= 0,ls=0.0,diis     3   -117.9558355446 -1.43D-05  1.06D-04  8.41D-05    34.0
 d= 0,ls=0.0,diis     4   -117.9558464568 -1.09D-05  1.19D-05  1.59D-07    35.0
 d= 0,ls=0.0,diis     5   -117.9558464796 -2.27D-08  7.62D-07  1.35D-09    35.7
(nogshift,skip_gshiftAOev,done_Fji)=( 1,F,F)


         Total DFT energy =     -117.955846479558
      One electron energy =     -306.443988171399
           Coulomb energy =      131.491233728974
    Exchange-Corr. energy =      -18.561852804885
 Nuclear repulsion energy =       75.558760767751

       Scaling correction =        0.026235714892

 Numeric. integr. density =       23.999999056855

     Total iterative time =      5.4s



                  Occupations of the irreducible representations
                  ----------------------------------------------

                     irrep           alpha         beta
                     --------     --------     --------
                     a'                3.0          3.0
                     e'+               6.0          6.0
                     e'-               0.0          0.0
                     a"                1.0          1.0
                     e"+               2.0          2.0
                     e"-               0.0          0.0


 center of mass
 --------------
 x =   0.00000000 y =  -0.00000000 z =   0.00000000

 moments of inertia (a.u.)
 ------------------
          90.348757358433           0.000000000000           0.000000000000
           0.000000000000          90.348757358433           0.000000000000
           0.000000000000           0.000000000000         144.159153627739

            General Information
            -------------------
          SCF calculation type: DFT
          Wavefunction type:  closed shell.
          No. of atoms     :     9
          No. of electrons :    24
           Alpha electrons :    12
            Beta electrons :    12
          Charge           :     0
          Spin multiplicity:     1
          Use of symmetry is: on ; symmetry adaption is: on 
          Maximum number of iterations: ***
          This is a Direct SCF calculation.
          AO basis - number of functions:    57
                     number of shells:    39
          Convergence on energy requested:  1.00D-06
          Convergence on density requested:  1.00D-05
          Convergence on gradient requested:  5.00D-04

              XC Information
              --------------
                         B3LYP Method XC Potential
                     Hartree-Fock (Exact) Exchange  0.200          
                        Slater Exchange Functional  0.800 local    
                    Becke 1988 Exchange Functional  0.720 non-local
              Lee-Yang-Parr Correlation Functional  0.810          
                  VWN I RPA Correlation Functional  0.190 local    

             Grid Information
             ----------------
          Grid used for XC integration:  fine      
          Radial quadrature: Mura-Knowles        
          Angular quadrature: Lebedev. 
          Tag              B.-S. Rad. Rad. Pts. Rad. Cut. Ang. Pts.
          ---              ---------- --------- --------- ---------
          C                   0.70       70           8.0       590
          H                   0.35       60          10.0       590
          Grid pruning is: on 
          Number of quadrature shells:   130
          Spatial weights used:  Erf1

          Convergence Information
          -----------------------
          Convergence aids based upon iterative change in 
          total energy or number of iterations. 
          Levelshifting, if invoked, occurs when the 
          HOMO/LUMO gap drops below (HL_TOL):  1.00D-02
          DIIS, if invoked, will attempt to extrapolate 
          using up to (NFOCK): 10 stored Fock matrices.

                    Damping( 0%)  Levelshifting(0.5)       DIIS
                  --------------- ------------------- ---------------
          dE  on:    start            ASAP                start   
          dE off:    2 iters        *** iters           *** iters 


      Screening Tolerance Information
      -------------------------------
          Density screening/tol_rho:  1.00D-10
          AO Gaussian exp screening on grid/accAOfunc:  14
          CD Gaussian exp screening on grid/accCDfunc:  20
          XC Gaussian exp screening on grid/accXCfunc:  20
          Schwarz screening/accCoul:  1.00D-08



                            NWChem DFT Gradient Module
                            --------------------------


                               Molecule conformer 0



  charge          =   0.00
  wavefunction    = closed shell

  Rotation of axis 
  Using symmetry


                         DFT ENERGY GRADIENTS

    atom               coordinates                        gradient
                 x          y          z           x          y          z
   1 C      -0.888740  -1.412135   0.000000   -0.012219  -0.019395   0.000000
   2 C       1.667315  -0.063604   0.000000    0.022907  -0.000885   0.000000
   3 C      -0.778575   1.475739   0.000000   -0.010687   0.020280   0.000000
   4 H      -1.435707  -2.281341   1.738166    0.005061   0.008040  -0.003180
   5 H      -1.435707  -2.281341  -1.738166    0.005061   0.008040   0.003180
   6 H       2.693553  -0.102688  -1.738166   -0.009494   0.000363   0.003180
   7 H       2.693553  -0.102688   1.738166   -0.009494   0.000363  -0.003180
   8 H      -1.257846   2.384029  -1.738166    0.004433  -0.008403   0.003180
   9 H      -1.257846   2.384029   1.738166    0.004433  -0.008403  -0.003180

                 ----------------------------------------
                 |  Time  |  1-e(secs)   |  2-e(secs)   |
                 ----------------------------------------
                 |  CPU   |       0.00   |       0.02   |
                 ----------------------------------------
                 |  WALL  |       0.00   |       0.02   |
                 ----------------------------------------
  no constraints, skipping    0.0000000000000000     

  Step       Energy      Delta E   Gmax     Grms     Xrms     Xmax   Walltime
  ---- ---------------- -------- -------- -------- -------- -------- --------
@    1    -117.95584648 -7.9D-03  0.00757  0.00284  0.05329  0.10622     36.7
                                                                    



                                Z-matrix (autoz)
                                -------- 

 Units are Angstrom for bonds and degrees for angles

      Type          Name      I     J     K     L     M      Value     Gradient
      ----------- --------  ----- ----- ----- ----- ----- ---------- ----------
    1 Stretch                  1     2                       1.52931    0.00226
    2 Stretch                  1     3                       1.52931    0.00226
    3 Stretch                  1     4                       1.06835   -0.00757
    4 Stretch                  1     5                       1.06835   -0.00757
    5 Stretch                  2     3                       1.52931    0.00226
    6 Stretch                  2     6                       1.06835   -0.00757
    7 Stretch                  2     7                       1.06835   -0.00757
    8 Stretch                  3     8                       1.06835   -0.00757
    9 Stretch                  3     9                       1.06835   -0.00757
   10 Bend                     1     2     3                60.00000    0.00000
   11 Bend                     1     2     6               116.13907   -0.00102
   12 Bend                     1     2     7               116.13907   -0.00102
   13 Bend                     1     3     2                60.00000    0.00000
   14 Bend                     1     3     8               116.13704   -0.00102
   15 Bend                     1     3     9               116.13704   -0.00102
   16 Bend                     2     1     3                60.00000   -0.00000
   17 Bend                     2     1     4               116.13704   -0.00102
   18 Bend                     2     1     5               116.13704   -0.00102
   19 Bend                     2     3     8               116.13907   -0.00102
   20 Bend                     2     3     9               116.13907   -0.00102
   21 Bend                     3     1     4               116.13907   -0.00102
   22 Bend                     3     1     5               116.13907   -0.00102
   23 Bend                     3     2     6               116.13704   -0.00102
   24 Bend                     3     2     7               116.13704   -0.00102
   25 Bend                     4     1     5               118.84723    0.00246
   26 Bend                     6     2     7               118.84723    0.00246
   27 Bend                     8     3     9               118.84723    0.00246
   28 Torsion                  1     2     3     8        -106.45656    0.00077
   29 Torsion                  1     2     3     9         106.45656   -0.00077
   30 Torsion                  1     3     2     6         106.45994   -0.00076
   31 Torsion                  1     3     2     7        -106.45994    0.00076
   32 Torsion                  2     1     3     8         106.45994   -0.00076
   33 Torsion                  2     1     3     9        -106.45994    0.00076
   34 Torsion                  2     3     1     4         106.45656   -0.00077
   35 Torsion                  2     3     1     5        -106.45656    0.00077
   36 Torsion                  3     1     2     6        -106.45656    0.00077
   37 Torsion                  3     1     2     7         106.45656   -0.00077
   38 Torsion                  3     2     1     4        -106.45994    0.00076
   39 Torsion                  3     2     1     5         106.45994   -0.00076
   40 Torsion                  4     1     2     6         147.08350    0.00153
   41 Torsion                  4     1     2     7          -0.00338   -0.00000
   42 Torsion                  4     1     3     8        -147.08350   -0.00153
   43 Torsion                  4     1     3     9          -0.00338   -0.00000
   44 Torsion                  5     1     2     6           0.00338    0.00000
   45 Torsion                  5     1     2     7        -147.08350   -0.00153
   46 Torsion                  5     1     3     8           0.00338    0.00000
   47 Torsion                  5     1     3     9         147.08350    0.00153
   48 Torsion                  6     2     3     8           0.00338    0.00000
   49 Torsion                  6     2     3     9        -147.08350   -0.00153
   50 Torsion                  7     2     3     8         147.08350    0.00153
   51 Torsion                  7     2     3     9          -0.00338   -0.00000

  no constraints, skipping    0.0000000000000000     
  no constraints, skipping    0.0000000000000000     
  no constraints, skipping    0.0000000000000000     
  no constraints, skipping    0.0000000000000000     
  no constraints, skipping    0.0000000000000000     
  no constraints, skipping    0.0000000000000000     
  no constraints, skipping    0.0000000000000000     
  no constraints, skipping    0.0000000000000000     

                                 NWChem DFT Module
                                 -----------------


                               Molecule conformer 0




 Summary of "ao basis" -> "ao basis" (spherical)
 ------------------------------------------------------------------------------
       Tag                 Description            Shells   Functions and Types
 ---------------- ------------------------------  ------  ---------------------
 C                           6-311G                  7       13   4s3p
 H                           6-311G                  3        3   3s


      Symmetry analysis of basis
      --------------------------

        a'         13
        e'+        13
        e'-        13
        a"          6
        e"+         6
        e"-         6

  Caching 1-el integrals 
  Rotation of axis 

            General Information
            -------------------
          SCF calculation type: DFT
          Wavefunction type:  closed shell.
          No. of atoms     :     9
          No. of electrons :    24
           Alpha electrons :    12
            Beta electrons :    12
          Charge           :     0
          Spin multiplicity:     1
          Use of symmetry is: on ; symmetry adaption is: on 
          Maximum number of iterations: ***
          This is a Direct SCF calculation.
          AO basis - number of functions:    57
                     number of shells:    39
          Convergence on energy requested:  1.00D-06
          Convergence on density requested:  1.00D-05
          Convergence on gradient requested:  5.00D-04

              XC Information
              --------------
                         B3LYP Method XC Potential
                     Hartree-Fock (Exact) Exchange  0.200          
                        Slater Exchange Functional  0.800 local    
                    Becke 1988 Exchange Functional  0.720 non-local
              Lee-Yang-Parr Correlation Functional  0.810          
                  VWN I RPA Correlation Functional  0.190 local    

             Grid Information
             ----------------
          Grid used for XC integration:  fine      
          Radial quadrature: Mura-Knowles        
          Angular quadrature: Lebedev. 
          Tag              B.-S. Rad. Rad. Pts. Rad. Cut. Ang. Pts.
          ---              ---------- --------- --------- ---------
          C                   0.70       70           8.0       590
          H                   0.35       60          10.0       590
          Grid pruning is: on 
          Number of quadrature shells:   130
          Spatial weights used:  Erf1

          Convergence Information
          -----------------------
          Convergence aids based upon iterative change in 
          total energy or number of iterations. 
          Levelshifting, if invoked, occurs when the 
          HOMO/LUMO gap drops below (HL_TOL):  1.00D-02
          DIIS, if invoked, will attempt to extrapolate 
          using up to (NFOCK): 10 stored Fock matrices.

                    Damping( 0%)  Levelshifting(0.5)       DIIS
                  --------------- ------------------- ---------------
          dE  on:    start            ASAP                start   
          dE off:    2 iters        *** iters           *** iters 


      Screening Tolerance Information
      -------------------------------
          Density screening/tol_rho:  1.00D-10
          AO Gaussian exp screening on grid/accAOfunc:  14
          CD Gaussian exp screening on grid/accCDfunc:  20
          XC Gaussian exp screening on grid/accXCfunc:  20
          Schwarz screening/accCoul:  1.00D-08

          Performing ZORA calculations
          ----------------------------


      Superposition of Atomic Density Guess
      -------------------------------------

 Sum of atomic energies:        -116.00451404

 Read atomic ZORA corrections from ./C1CC1_mol_1_conformer_0.zora_sf

 Forcing recalculation of ZORA corrections
       Generating atomic ZORA corrections
       ----------------------------------

 In dft_scf:: zora:Knucl= F

 Grid_pts file          = ./C1CC1_mol_1_conformer_0.gridpts.00
 Record size in doubles =  12289        No. of grid_pts per rec  =   3070
 Max. records in memory =      2        Max. recs in file   =     13628

 Grid integrated density:      24.000002795813
 Requested integration accuracy:   0.10E-06

 Wrote atomic ZORA corrections to ./C1CC1_mol_1_conformer_0.zora_sf


 Loading old vectors from job with title :

Molecule conformer 0


      Symmetry analysis of molecular orbitals - initial
      -------------------------------------------------

  Numbering of irreducible representations: 

     1 a'          2 e'+         3 e'-         4 a"          5 e"+     
     6 e"-     

  Orbital symmetries:

     1 a'          2 e'+         3 e'+         4 a'          5 e'+     
     6 e'+         7 a"          8 a'          9 e"+        10 e"+     
    11 e'+        12 e'+        13 a'         14 a"         15 e'+     
    16 e'+        17 a'         18 e"+        19 e"+        20 e'+     
    21 e'+        22 a'      

   Time after variat. SCF:     42.1
   Time prior to 1st pass:     42.1

           Memory utilization after 1st SCF pass: 
           Heap Space remaining (MW):      131.04           131041678
          Stack Space remaining (MW):      131.06           131064900

   convergence    iter        energy       DeltaE   RMS-Dens  Diis-err    time
 ---------------- ----- ----------------- --------- --------- ---------  ------
 d= 0,ls=0.0,diis     1   -117.9572800468 -1.93D+02  6.67D-04  8.87D-04    43.6
 d= 0,ls=0.0,diis     2   -117.9573945688 -1.15D-04  2.45D-04  1.34D-04    44.8
 d= 0,ls=0.0,diis     3   -117.9574016788 -7.11D-06  9.66D-05  8.82D-05    45.9
 d= 0,ls=0.0,diis     4   -117.9574132472 -1.16D-05  2.19D-06  1.49D-08    47.3
 d= 0,ls=0.0,diis     5   -117.9574132500 -2.83D-09  2.66D-07  7.04D-11    48.4
(nogshift,skip_gshiftAOev,done_Fji)=( 1,F,F)


         Total DFT energy =     -117.957413250015
      One electron energy =     -306.044103190282
           Coulomb energy =      131.281420161721
    Exchange-Corr. energy =      -18.545406569821
 Nuclear repulsion energy =       75.350676348368

       Scaling correction =        0.026242665264

 Numeric. integr. density =       23.999999992879

     Total iterative time =      6.4s



                  Occupations of the irreducible representations
                  ----------------------------------------------

                     irrep           alpha         beta
                     --------     --------     --------
                     a'                3.0          3.0
                     e'+               6.0          6.0
                     e'-               0.0          0.0
                     a"                1.0          1.0
                     e"+               2.0          2.0
                     e"-               0.0          0.0


 center of mass
 --------------
 x =  -0.00000000 y =   0.00000000 z =   0.00000000

 moments of inertia (a.u.)
 ------------------
          90.685517984107           0.000000000000           0.000000000000
           0.000000000000          90.685517984107           0.000000000000
           0.000000000000           0.000000000000         145.081129719012
 Line search: 
     step= 1.00 grad=-2.1D-03 hess= 5.1D-04 energy=   -117.957413 mode=downhill
 new step= 2.04                   predicted energy=   -117.957961
  no constraints, skipping    0.0000000000000000     
  no constraints, skipping    0.0000000000000000     
  no constraints, skipping    0.0000000000000000     
  no constraints, skipping    0.0000000000000000     
  no constraints, skipping    0.0000000000000000     
  no constraints, skipping    0.0000000000000000     
  no constraints, skipping    0.0000000000000000     
  no constraints, skipping    0.0000000000000000     

          --------
          Step   2
          --------


                         Geometry "geometry" -> "geometry"
                         ---------------------------------

 Output coordinates in angstroms (scale by  1.889725989 to convert to a.u.)

  No.       Tag          Charge          X              Y              Z
 ---- ---------------- ---------- -------------- -------------- --------------
    1 C                    6.0000    -0.46909021    -0.74536777     0.00000000
    2 C                    6.0000     0.88005253    -0.03356016     0.00000000
    3 C                    6.0000    -0.41096231     0.77892793     0.00000000
    4 H                    1.0000    -0.78024626    -1.23980635     0.91303368
    5 H                    1.0000    -0.78024626    -1.23980635    -0.91303368
    6 H                    1.0000     1.46382692    -0.05580990    -0.91303368
    7 H                    1.0000     1.46382692    -0.05580990     0.91303368
    8 H                    1.0000    -0.68358067     1.29561625    -0.91303368
    9 H                    1.0000    -0.68358067     1.29561625     0.91303368

      Atomic Mass 
      ----------- 

      C                 12.000000
      H                  1.007825


 Effective nuclear repulsion energy (a.u.)      75.1404086355

            Nuclear Dipole moment (a.u.) 
            ----------------------------
        X                 Y               Z
 ---------------- ---------------- ----------------
     0.0000000000    -0.0000000000     0.0000000000

      Symmetry information
      --------------------

 Group name             C3h       
 Group number             22
 Group order               6
 No. of unique centers     2

      Symmetry unique atoms

     1    4


                                 NWChem DFT Module
                                 -----------------


                               Molecule conformer 0




 Summary of "ao basis" -> "ao basis" (spherical)
 ------------------------------------------------------------------------------
       Tag                 Description            Shells   Functions and Types
 ---------------- ------------------------------  ------  ---------------------
 C                           6-311G                  7       13   4s3p
 H                           6-311G                  3        3   3s


      Symmetry analysis of basis
      --------------------------

        a'         13
        e'+        13
        e'-        13
        a"          6
        e"+         6
        e"-         6

  Caching 1-el integrals 
  Rotation of axis 

            General Information
            -------------------
          SCF calculation type: DFT
          Wavefunction type:  closed shell.
          No. of atoms     :     9
          No. of electrons :    24
           Alpha electrons :    12
            Beta electrons :    12
          Charge           :     0
          Spin multiplicity:     1
          Use of symmetry is: on ; symmetry adaption is: on 
          Maximum number of iterations: ***
          This is a Direct SCF calculation.
          AO basis - number of functions:    57
                     number of shells:    39
          Convergence on energy requested:  1.00D-06
          Convergence on density requested:  1.00D-05
          Convergence on gradient requested:  5.00D-04

              XC Information
              --------------
                         B3LYP Method XC Potential
                     Hartree-Fock (Exact) Exchange  0.200          
                        Slater Exchange Functional  0.800 local    
                    Becke 1988 Exchange Functional  0.720 non-local
              Lee-Yang-Parr Correlation Functional  0.810          
                  VWN I RPA Correlation Functional  0.190 local    

             Grid Information
             ----------------
          Grid used for XC integration:  fine      
          Radial quadrature: Mura-Knowles        
          Angular quadrature: Lebedev. 
          Tag              B.-S. Rad. Rad. Pts. Rad. Cut. Ang. Pts.
          ---              ---------- --------- --------- ---------
          C                   0.70       70           8.0       590
          H                   0.35       60          10.0       590
          Grid pruning is: on 
          Number of quadrature shells:   130
          Spatial weights used:  Erf1

          Convergence Information
          -----------------------
          Convergence aids based upon iterative change in 
          total energy or number of iterations. 
          Levelshifting, if invoked, occurs when the 
          HOMO/LUMO gap drops below (HL_TOL):  1.00D-02
          DIIS, if invoked, will attempt to extrapolate 
          using up to (NFOCK): 10 stored Fock matrices.

                    Damping( 0%)  Levelshifting(0.5)       DIIS
                  --------------- ------------------- ---------------
          dE  on:    start            ASAP                start   
          dE off:    2 iters        *** iters           *** iters 


      Screening Tolerance Information
      -------------------------------
          Density screening/tol_rho:  1.00D-10
          AO Gaussian exp screening on grid/accAOfunc:  14
          CD Gaussian exp screening on grid/accCDfunc:  20
          XC Gaussian exp screening on grid/accXCfunc:  20
          Schwarz screening/accCoul:  1.00D-08

          Performing ZORA calculations
          ----------------------------


      Superposition of Atomic Density Guess
      -------------------------------------

 Sum of atomic energies:        -116.00451404

 Read atomic ZORA corrections from ./C1CC1_mol_1_conformer_0.zora_sf

 Forcing recalculation of ZORA corrections
       Generating atomic ZORA corrections
       ----------------------------------

 In dft_scf:: zora:Knucl= F

 Grid_pts file          = ./C1CC1_mol_1_conformer_0.gridpts.00
 Record size in doubles =  12289        No. of grid_pts per rec  =   3070
 Max. records in memory =      2        Max. recs in file   =     13628

 Grid integrated density:      24.000003907741
 Requested integration accuracy:   0.10E-06

 Wrote atomic ZORA corrections to ./C1CC1_mol_1_conformer_0.zora_sf


 Loading old vectors from job with title :

Molecule conformer 0


      Symmetry analysis of molecular orbitals - initial
      -------------------------------------------------

  Numbering of irreducible representations: 

     1 a'          2 e'+         3 e'-         4 a"          5 e"+     
     6 e"-     

  Orbital symmetries:

     1 a'          2 e'+         3 e'+         4 a'          5 e'+     
     6 e'+         7 a"          8 a'          9 e"+        10 e"+     
    11 e'+        12 e'+        13 a'         14 a"         15 e'+     
    16 e'+        17 a'         18 e"+        19 e"+        20 e'+     
    21 e'+        22 a'      

   Time after variat. SCF:     54.1
   Time prior to 1st pass:     54.1

           Memory utilization after 1st SCF pass: 
           Heap Space remaining (MW):      131.04           131041678
          Stack Space remaining (MW):      131.06           131064900

   convergence    iter        energy       DeltaE   RMS-Dens  Diis-err    time
 ---------------- ----- ----------------- --------- --------- ---------  ------
 d= 0,ls=0.0,diis     1   -117.9578532192 -1.93D+02  6.64D-04  9.34D-04    55.1
 d= 0,ls=0.0,diis     2   -117.9579730898 -1.20D-04  2.51D-04  1.47D-04    55.9
 d= 0,ls=0.0,diis     3   -117.9579807617 -7.67D-06  1.00D-04  9.67D-05    56.9
 d= 0,ls=0.0,diis     4   -117.9579934826 -1.27D-05  2.64D-06  1.56D-08    58.0
 d= 0,ls=0.0,diis     5   -117.9579934856 -2.97D-09  1.87D-07  7.15D-11    58.7
(nogshift,skip_gshiftAOev,done_Fji)=( 1,F,F)


         Total DFT energy =     -117.957993485594
      One electron energy =     -305.637351273882
           Coulomb energy =      131.067459244376
    Exchange-Corr. energy =      -18.528510091606
 Nuclear repulsion energy =       75.140408635517

       Scaling correction =        0.026248275202

 Numeric. integr. density =       24.000000949357

     Total iterative time =      4.7s



                  Occupations of the irreducible representations
                  ----------------------------------------------

                     irrep           alpha         beta
                     --------     --------     --------
                     a'                3.0          3.0
                     e'+               6.0          6.0
                     e'-               0.0          0.0
                     a"                1.0          1.0
                     e"+               2.0          2.0
                     e"-               0.0          0.0


 center of mass
 --------------
 x =   0.00000000 y =  -0.00000000 z =   0.00000000

 moments of inertia (a.u.)
 ------------------
          91.026952056075          -0.000000000000           0.000000000000
[...]
(dia2,par1)(k,t,iat1,spin)=(  3,  2,  7,  1)=(     0.12878439,     0.12878439,    -0.04975791,    -0.04975791) ppm
(dia2,par1)(k,t,iat1,spin)=(  1,  3,  7,  1)=(    -4.78515639,    -4.78515639,     0.46579412,     0.46579412) ppm
(dia2,par1)(k,t,iat1,spin)=(  2,  3,  7,  1)=(     0.18406953,     0.18406953,    -0.01764826,    -0.01764826) ppm
(dia2,par1)(k,t,iat1,spin)=(  3,  3,  7,  1)=(     1.23051677,     1.23051677,    -1.55541345,    -1.55541345) ppm
 Grid integrated density:      24.000003251373
 Requested integration accuracy:   0.10E-06
dia1(k,t,iat1,ispin)=(  1,  1,  8,  1)=(    20.68573466,    20.68573466) ppm
dia1(k,t,iat1,ispin)=(  1,  2,  8,  1)=(    -4.06601162,    -4.06601162) ppm
dia1(k,t,iat1,ispin)=(  1,  3,  8,  1)=(     5.40235850,     5.40235850) ppm
dia1(k,t,iat1,ispin)=(  2,  1,  8,  1)=(    -4.08195570,    -4.08195570) ppm
dia1(k,t,iat1,ispin)=(  2,  2,  8,  1)=(    26.28001420,    26.28001420) ppm
dia1(k,t,iat1,ispin)=(  2,  3,  8,  1)=(   -10.24863640,   -10.24863640) ppm
dia1(k,t,iat1,ispin)=(  3,  1,  8,  1)=(     5.22709132,     5.22709132) ppm
dia1(k,t,iat1,ispin)=(  3,  2,  8,  1)=(    -9.89911377,    -9.89911377) ppm
dia1(k,t,iat1,ispin)=(  3,  3,  8,  1)=(    32.13505003,    32.13505003) ppm
(dia2,par1)(k,t,iat1,spin)=(  1,  1,  8,  1)=(     5.39599188,     5.39599188,     0.21562436,     0.21562436) ppm
(dia2,par1)(k,t,iat1,spin)=(  2,  1,  8,  1)=(     0.94647247,     0.94647247,     0.19648523,     0.19648523) ppm
(dia2,par1)(k,t,iat1,spin)=(  3,  1,  8,  1)=(    -1.56477306,    -1.56477306,     0.59763267,     0.59763267) ppm
(dia2,par1)(k,t,iat1,spin)=(  1,  2,  8,  1)=(     0.94634249,     0.94634249,     0.20821548,     0.20821548) ppm
(dia2,par1)(k,t,iat1,spin)=(  2,  2,  8,  1)=(     4.10742631,     4.10742631,    -0.07400412,    -0.07400412) ppm
(dia2,par1)(k,t,iat1,spin)=(  3,  2,  8,  1)=(     2.97151659,     2.97151659,    -1.11135022,    -1.11135022) ppm
(dia2,par1)(k,t,iat1,spin)=(  1,  3,  8,  1)=(    -2.23774438,    -2.23774438,     0.21746942,     0.21746942) ppm
(dia2,par1)(k,t,iat1,spin)=(  2,  3,  8,  1)=(     4.21835757,     4.21835757,    -0.41289022,    -0.41289022) ppm
(dia2,par1)(k,t,iat1,spin)=(  3,  3,  8,  1)=(     1.23503200,     1.23503200,    -1.55594885,    -1.55594885) ppm
 Grid integrated density:      24.000003251373
 Requested integration accuracy:   0.10E-06
dia1(k,t,iat1,ispin)=(  1,  1,  9,  1)=(    20.68604098,    20.68604098) ppm
dia1(k,t,iat1,ispin)=(  1,  2,  9,  1)=(    -4.06604735,    -4.06604735) ppm
dia1(k,t,iat1,ispin)=(  1,  3,  9,  1)=(    -5.40273688,    -5.40273688) ppm
dia1(k,t,iat1,ispin)=(  2,  1,  9,  1)=(    -4.08197590,    -4.08197590) ppm
dia1(k,t,iat1,ispin)=(  2,  2,  9,  1)=(    26.28047268,    26.28047268) ppm
dia1(k,t,iat1,ispin)=(  2,  3,  9,  1)=(    10.24916568,    10.24916568) ppm
dia1(k,t,iat1,ispin)=(  3,  1,  9,  1)=(    -5.22722806,    -5.22722806) ppm
dia1(k,t,iat1,ispin)=(  3,  2,  9,  1)=(     9.89942672,     9.89942672) ppm
dia1(k,t,iat1,ispin)=(  3,  3,  9,  1)=(    32.13652759,    32.13652759) ppm
(dia2,par1)(k,t,iat1,spin)=(  1,  1,  9,  1)=(     5.39646152,     5.39646152,     0.21528570,     0.21528570) ppm
(dia2,par1)(k,t,iat1,spin)=(  2,  1,  9,  1)=(     0.94651791,     0.94651791,     0.19621849,     0.19621849) ppm
(dia2,par1)(k,t,iat1,spin)=(  3,  1,  9,  1)=(     1.56480422,     1.56480422,    -0.59771941,    -0.59771941) ppm
(dia2,par1)(k,t,iat1,spin)=(  1,  2,  9,  1)=(     0.94628652,     0.94628652,     0.20811068,     0.20811068) ppm
(dia2,par1)(k,t,iat1,spin)=(  2,  2,  9,  1)=(     4.10756834,     4.10756834,    -0.07412667,    -0.07412667) ppm
(dia2,par1)(k,t,iat1,spin)=(  3,  2,  9,  1)=(    -2.97163124,    -2.97163124,     1.11126611,     1.11126611) ppm
(dia2,par1)(k,t,iat1,spin)=(  1,  3,  9,  1)=(     2.23769213,     2.23769213,    -0.21747218,    -0.21747218) ppm
(dia2,par1)(k,t,iat1,spin)=(  2,  3,  9,  1)=(    -4.21862960,    -4.21862960,     0.41288784,     0.41288784) ppm
(dia2,par1)(k,t,iat1,spin)=(  3,  3,  9,  1)=(     1.23500536,     1.23500536,    -1.55602675,    -1.55602675) ppm
 Grid integrated density:      24.000003251373
 Requested integration accuracy:   0.10E-06

 Wrote ZORA NMR data to ./C1CC1_mol_1_conformer_0.zora_nmrcs

(nogshift,skip_gshiftAOev,done_Fji)=( 1,F,T)


         Total DFT energy =     -117.960575259623
      One electron energy =     -306.334617708960
           Coulomb energy =      131.408987637650
    Exchange-Corr. energy =      -18.544639438666
 Nuclear repulsion energy =       75.453907238310

             COSMO energy =        0.055787012044

       Scaling correction =        0.026376644380

 Numeric. integr. density =       24.000001199693

     Total iterative time =     29.9s


                                   COSMO solvation results
                                   -----------------------

                 gas phase energy =      -117.958419831922
                 sol phase energy =      -117.960575259623
 (electrostatic) solvation energy =         0.002155427701 (    1.35 kcal/mol)

 center of mass
 --------------
 x =   0.00000000 y =   0.00000000 z =   0.00000000

 moments of inertia (a.u.)
 ------------------
          90.210638011000           0.000000000000           0.000000000000
           0.000000000000          90.210638011000           0.000000000000
           0.000000000000           0.000000000000         144.978144290435

            Scalar ZORA NMR Shielding
            -------------------------


          -----------------------------------------
          Chemical Shielding Tensors (GIAO, in ppm)
          -----------------------------------------


 Read ZORA NMR data from ./C1CC1_mol_1_conformer_0.zora_nmrcs

    0 giaofock schwarz done =     100.00%
    0 giaofock schwarz done =      99.95%
                                NWChem CPHF Module
                                ------------------



 solvent parameters
 solvname_short: cdcl3   
 solvname_long:  unknown                            
 dielec:       78.4000
 dielecinf:     1.7769

          ---------------
          -cosmo- solvent
          ---------------
 Cosmo: York-Karplus, doi: 10.1021/jp992097l
 dielectric constant -eps-     =  78.40
 screen = (eps-1)/(eps    )    =   0.98724
 surface charge correction     = lagrangian
 -lineq- algorithm             =   0
 -bem- low  level              =   2
 -bem- from -octahedral-
 gaussian surface charge width =   0.98000
 degree of switching           =   1.00000
 switching function tolerance  =   0.00010
 atomic radii = 
 --------------
    1  6.000  2.000
    2  6.000  2.000
    3  6.000  2.000
    4  1.000  1.300
    5  1.000  1.300
    6  1.000  1.300
    7  1.000  1.300
    8  1.000  1.300
    9  1.000  1.300

 solvent accessible surface
 --------------------------

 ---------- ATOMIC COORDINATES (A.U.) ------------ VDWR(ANG.) --
     1   -0.88153457   -1.40074728    0.00000000     2.000
     2    1.65385001   -0.06305769    0.00000000     2.000
     3   -0.77231544    1.46380497    0.00000000     2.000
     4   -1.47490500   -2.34360868    1.71191760     1.300
     5   -1.47490500   -2.34360868   -1.71191760     1.300
     6    2.76707715   -0.10550086   -1.71191760     1.300
     7    2.76707715   -0.10550086    1.71191760     1.300
     8   -1.29217215    2.44910954   -1.71191760     1.300
     9   -1.29217215    2.44910954    1.71191760     1.300
 number of segments per atom =         32
 number of   points per atom =         32
 atom (   nspa,  nppa )
 ----------------------
    1 (     16,     0 )       0
    2 (     16,     0 )       0
    3 (     16,     0 )       0
    4 (     14,     0 )       0
    5 (     14,     0 )       0
    6 (     15,     0 )       0
    7 (     15,     0 )       0
    8 (     15,     0 )       0
    9 (     15,     0 )       0
 number of -cosmo- surface points =      136
 molecular surface =     98.477 angstrom**2
 molecular volume  =     56.907 angstrom**3
 G(cav/disp)       =      1.352 kcal/mol
 ...... end of -cosmo- initialization ......


  scftype          =     RHF 
  nclosed          =       12
  nopen            =        0
  variables        =      540
  # of vectors     =        3
  tolerance        = 0.10D-03
  level shift      = 0.00D+00
  max iterations   =       50
  max subspace     =       30

 SCF residual:    6.9760235298563927E-005


Iterative solution of linear equations
  No. of variables      540
  No. of equations        3
  Maximum subspace       30
        Iterations       50
       Convergence  1.0D-04
        Start time    291.4


   iter   nsub   residual    time
   ----  ------  --------  ---------
     1      3    3.40D-01     292.8
     2      6    5.21D-03     294.3
     3      9    2.13D-04     296.0
     4     12    8.79D-06     297.6

 Wrote CPHF data to ./C1CC1_mol_1_conformer_0.shieldcphf

 Calc. par tensor-> zora
      Atom:    1  H 
        Diamagnetic
     26.6158      3.4182     -3.8990
      3.4182     29.9051     -6.1984
     -3.8990     -6.1984     33.4050

        Paramagnetic
      2.4904     -0.4239      0.5734
     -0.4239      2.0921      0.8945
      0.5734      0.8945      3.2188

        Total Shielding Tensor
     29.1063      2.9943     -3.3256
      2.9943     31.9972     -5.3038
     -3.3256     -5.3038     36.6238

           isotropic =      32.5757
          anisotropy =      13.6255

          Principal Components and Axis System
                 1           2           3
               41.6594     28.8411     27.2267

      1        -0.3331      0.4152      0.8466
      2        -0.5309      0.6594     -0.5323
      3         0.7792      0.6268     -0.0008



      Atom:    2  H 
        Diamagnetic
     26.6158      3.4182      3.8991
      3.4182     29.9052      6.1983
      3.8991      6.1983     33.4050

        Paramagnetic
      2.4904     -0.4239     -0.5734
     -0.4239      2.0923     -0.8945
     -0.5734     -0.8945      3.2188

        Total Shielding Tensor
     29.1063      2.9943      3.3257
      2.9943     31.9975      5.3038
      3.3257      5.3038     36.6238

           isotropic =      32.5758
          anisotropy =      13.6254

          Principal Components and Axis System
                 1           2           3
               41.6595     28.8412     27.2268

      1         0.3331      0.4152      0.8466
      2         0.5310      0.6594     -0.5323
      3         0.7792     -0.6268      0.0008



      Atom:    3  H 
        Diamagnetic
     32.0135     -0.2840     -7.3060
     -0.2840     24.4558      0.2765
     -7.3060      0.2765     33.3498

        Paramagnetic
      1.8367      0.0330      1.0434
      0.0330      2.7611     -0.0372
      1.0434     -0.0372      3.2402

        Total Shielding Tensor
     33.8502     -0.2510     -6.2626
     -0.2510     27.2168      0.2393
     -6.2626      0.2393     36.5899

           isotropic =      32.5523
          anisotropy =      13.6299

          Principal Components and Axis System
                 1           2           3
               41.6389     28.8107     27.2073

      1        -0.6269      0.7782      0.0371
      2         0.0238     -0.0284      0.9993
      3         0.7787      0.6274     -0.0008



      Atom:    4  H 
        Diamagnetic
     32.0134     -0.2839      7.3060
     -0.2839     24.4557     -0.2765
      7.3060     -0.2765     33.3498

        Paramagnetic
      1.8368      0.0331     -1.0434
      0.0331      2.7610      0.0373
     -1.0434      0.0373      3.2401

        Total Shielding Tensor
     33.8502     -0.2508      6.2626
     -0.2508     27.2168     -0.2392
      6.2626     -0.2392     36.5899

           isotropic =      32.5523
          anisotropy =      13.6299

          Principal Components and Axis System
                 1           2           3
               41.6389     28.8107     27.2073

      1         0.6269      0.7782      0.0370
      2        -0.0238     -0.0283      0.9993
      3         0.7787     -0.6274      0.0008



      Atom:    5  H 
        Diamagnetic
     26.0817     -3.1276      3.4135
     -3.1276     30.3874     -6.4789
      3.4135     -6.4789     33.3701

        Paramagnetic
      2.5614      0.3847     -0.4996
      0.3847      2.0295      0.9394
     -0.4996      0.9394      3.2225

        Total Shielding Tensor
     28.6431     -2.7429      2.9139
     -2.7429     32.4169     -5.5396
      2.9139     -5.5396     36.5925

           isotropic =      32.5509
          anisotropy =      13.6225

          Principal Components and Axis System
                 1           2           3
               41.6325     28.8192     27.2008

      1         0.2919     -0.3622      0.8852
      2        -0.5551      0.6895      0.4652
      3         0.7789      0.6272     -0.0002



      Atom:    6  H 
        Diamagnetic
     26.0825     -3.1276     -3.4137
     -3.1276     30.3880      6.4792
     -3.4137      6.4792     33.3715

        Paramagnetic
      2.5617      0.3847      0.4996
      0.3847      2.0299     -0.9390
      0.4996     -0.9390      3.2229

        Total Shielding Tensor
     28.6442     -2.7429     -2.9141
     -2.7429     32.4179      5.5401
     -2.9141      5.5401     36.5944

           isotropic =      32.5522
          anisotropy =      13.6238

          Principal Components and Axis System
                 1           2           3
               41.6347     28.8200     27.2018

      1        -0.2919     -0.3623      0.8852
      2         0.5551      0.6895      0.4653
      3         0.7789     -0.6272      0.0002




 Task  times  cpu:       36.5s     wall:       42.1s


                                NWChem Input Module
                                -------------------


 Summary of allocated global arrays
-----------------------------------
  array 0 => double precision sf 1(57,57),  handle: -987 
  array 1 => double precision sf 1(57,57),  handle: -986 
  array 2 => double precision sf 1(57,57),  handle: -985 
  array 3 => double precision sf 1(57,57),  handle: -984 
  array 4 => double precision sf 1(57,57),  handle: -983 
  array 5 => double precision sf 1(57,57),  handle: -982 
  array 6 => double precision sf 1(57,57),  handle: -981 
  array 7 => double precision sf 1(57,57),  handle: -980 
  array 8 => double precision sf 1(57,57),  handle: -979 
  array 9 => double precision sf 1(57,57),  handle: -978 
  array 10 => double precision sf 1(57,57),  handle: -977 
  array 11 => double precision sf 1(57,57),  handle: -976 
  array 12 => double precision sf 1(57,57),  handle: -975 
  array 13 => double precision sf 1(57,57),  handle: -974 
  array 14 => double precision sf 1(57,57),  handle: -973 
  array 15 => double precision sf 1(57,57),  handle: -972 
  array 16 => double precision sf 1(57,57),  handle: -971 
  array 17 => double precision sf 1(57,57),  handle: -970 
  array 18 => double precision sf 1(57,57),  handle: -969 
  array 19 => double precision sf 1(57,57),  handle: -968 
  array 20 => double precision sf 1(57,57),  handle: -967 
  array 21 => double precision sf 1(57,57),  handle: -966 
  array 22 => double precision sf 1(57,57),  handle: -965 



                         GA Statistics for process    0
                         ------------------------------

       create   destroy   get      put      acc     scatter   gather  read&inc
calls: 4489     4328     1.07e+05 2.13e+04 3.63e+04   60        0     4399     
number of processes/call 0.00e+00 0.00e+00 0.00e+00 0.00e+00 0.00e+00
bytes total:             1.11e+08 2.22e+07 8.12e+07 2.24e+02 0.00e+00 3.52e+04
bytes remote:            9.53e+07 1.74e+07 7.30e+07 -1.12e+02 0.00e+00 0.00e+00
Max memory consumed for GA by this process: 375856 bytes

MA_summarize_allocated_blocks: starting scan ...
MA_summarize_allocated_blocks: scan completed: 0 heap blocks, 0 stack blocks
MA usage statistics:

	allocation statistics:
					      heap	     stack
					      ----	     -----
	current number of blocks	         0	         0
	maximum number of blocks	        66	        59
	current total bytes		         0	         0
	maximum total bytes		   1513360	  24871544
	maximum total K-bytes		      1514	     24872
	maximum total M-bytes		         2	        25


                                     CITATION
                                     --------
                Please cite the following reference when publishing
                           results obtained with NWChem:

          E. Apr, E. J. Bylaska, W. A. de Jong, N. Govind, K. Kowalski,
       T. P. Straatsma, M. Valiev, H. J. J. van Dam, Y. Alexeev, J. Anchell,
       V. Anisimov, F. W. Aquino, R. Atta-Fynn, J. Autschbach, N. P. Bauman,
     J. C. Becca, D. E. Bernholdt, K. Bhaskaran-Nair, S. Bogatko, P. Borowski,
        J. Boschen, J. Brabec, A. Bruner, E. Caut, Y. Chen, G. N. Chuev,
      C. J. Cramer, J. Daily, M. J. O. Deegan, T. H. Dunning Jr., M. Dupuis,
   K. G. Dyall, G. I. Fann, S. A. Fischer, A. Fonari, H. Frchtl, L. Gagliardi,
      J. Garza, N. Gawande, S. Ghosh, K. Glaesemann, A. W. Gtz, J. Hammond,
       V. Helms, E. D. Hermes, K. Hirao, S. Hirata, M. Jacquelin, L. Jensen,
   B. G. Johnson, H. Jnsson, R. A. Kendall, M. Klemm, R. Kobayashi, V. Konkov,
      S. Krishnamoorthy, M. Krishnan, Z. Lin, R. D. Lins, R. J. Littlefield,
      A. J. Logsdail, K. Lopata, W. Ma, A. V. Marenich, J. Martin del Campo,
   D. Mejia-Rodriguez, J. E. Moore, J. M. Mullin, T. Nakajima, D. R. Nascimento,
    J. A. Nichols, P. J. Nichols, J. Nieplocha, A. Otero-de-la-Roza, B. Palmer,
    A. Panyala, T. Pirojsirikul, B. Peng, R. Peverati, J. Pittner, L. Pollack,
   R. M. Richard, P. Sadayappan, G. C. Schatz, W. A. Shelton, D. W. Silverstein,
   D. M. A. Smith, T. A. Soares, D. Song, M. Swart, H. L. Taylor, G. S. Thomas,
            V. Tipparaju, D. G. Truhlar, K. Tsemekhman, T. Van Voorhis,
     . Vzquez-Mayagoitia, P. Verma, O. Villa, A. Vishnu, K. D. Vogiatzis,
        D. Wang, J. H. Weare, M. J. Williamson, T. L. Windus, K. Woliski,
        A. T. Wong, Q. Wu, C. Yang, Q. Yu, M. Zacharias, Z. Zhang, Y. Zhao,
                                and R. J. Harrison
                        "NWChem: Past, present, and future
                         J. Chem. Phys. 152, 184102 (2020)
                               doi:10.1063/5.0004997

                                      AUTHORS
                                      -------
     E. Apra, E. J. Bylaska, N. Govind, K. Kowalski, M. Valiev, W. A. de Jong,
      T. P. Straatsma, H. J. J. van Dam, D. Wang, T. L. Windus, N. P. Bauman,
       A. Panyala, J. Hammond, J. Autschbach, K. Bhaskaran-Nair, J. Brabec,
    K. Lopata, S. A. Fischer, S. Krishnamoorthy, M. Jacquelin, W. Ma, M. Klemm,
       O. Villa, Y. Chen, V. Anisimov, F. Aquino, S. Hirata, M. T. Hackler,
           Eric Hermes, L. Jensen, J. E. Moore, J. C. Becca, V. Konjkov,
            D. Mejia-Rodriguez, T. Risthaus, M. Malagoli, A. Marenich,
   A. Otero-de-la-Roza, J. Mullin, P. Nichols, R. Peverati, J. Pittner, Y. Zhao,
        P.-D. Fan, A. Fonari, M. J. Williamson, R. J. Harrison, J. R. Rehr,
      M. Dupuis, D. Silverstein, D. M. A. Smith, J. Nieplocha, V. Tipparaju,
      M. Krishnan, B. E. Van Kuiken, A. Vazquez-Mayagoitia, M. Swart, Q. Wu,
   T. Van Voorhis, A. A. Auer, M. Nooijen, L. D. Crosby, E. Brown, G. Cisneros,
     G. I. Fann, H. Fruchtl, J. Garza, K. Hirao, R. A. Kendall, J. A. Nichols,
       K. Tsemekhman, K. Wolinski, J. Anchell, D. E. Bernholdt, P. Borowski,
       T. Clark, D. Clerc, H. Dachsel, M. J. O. Deegan, K. Dyall, D. Elwood,
      E. Glendening, M. Gutowski, A. C. Hess, J. Jaffe, B. G. Johnson, J. Ju,
        R. Kobayashi, R. Kutteh, Z. Lin, R. Littlefield, X. Long, B. Meng,
      T. Nakajima, S. Niu, L. Pollack, M. Rosing, K. Glaesemann, G. Sandrone,
      M. Stave, H. Taylor, G. Thomas, J. H. van Lenthe, A. T. Wong, Z. Zhang.

 Total times  cpu:      262.8s     wall:      297.9s
