 argument  1 = C1C2C1C2_mol_9_conformer_0.nw



============================== echo of input deck ==============================
start

title "Molecule conformer 0"

memory total 4000 mb

echo
geometry units angstroms
   C      1.1851    -0.3058    -0.3386
   C     -0.0940     0.3913    -0.6946
   C      0.1724    -0.1024     0.7651
   C     -1.2244     0.1990     0.2719
   H      2.0718     0.3599    -0.2729
   H      1.2477    -1.3324    -0.7616
   H      0.1111     1.4800    -0.7853
   H      0.0430    -1.1486     1.1195
   H     -1.6563     1.1410     0.6717
   H     -1.8564    -0.6820     0.0249
end


basis spherical
* library 6-311G
end

driver
  maxiter 500
  xyz final
end

relativistic
  zora on
  zora:cutoff_NMR 1d-8
  zora:cutoff 1d-30
end

dft
  direct
  grid fine
  xc B3LYP
  mult 1
  maxiter 1500
  noprint "final vectors analysis" multipole
end

task dft optimize

task dft freq

property
  shielding 6 5 6 7 8 9 10
end

cosmo
   solvent cdcl3
end

task dft property
================================================================================


                                         
                                         


             Northwest Computational Chemistry Package (NWChem) 7.0.2
             --------------------------------------------------------


                    Environmental Molecular Sciences Laboratory
                       Pacific Northwest National Laboratory
                                Richland, WA 99352

                              Copyright (c) 1994-2020
                       Pacific Northwest National Laboratory
                            Battelle Memorial Institute

             NWChem is an open-source computational chemistry package
                        distributed under the terms of the
                      Educational Community License (ECL) 2.0
             A copy of the license is included with this distribution
                              in the LICENSE.TXT file

                                  ACKNOWLEDGMENT
                                  --------------

            This software and its documentation were developed at the
            EMSL at Pacific Northwest National Laboratory, a multiprogram
            national laboratory, operated for the U.S. Department of Energy
            by Battelle under Contract Number DE-AC05-76RL01830. Support
            for this work was provided by the Department of Energy Office
            of Biological and Environmental Research, Office of Basic
            Energy Sciences, and the Office of Advanced Scientific Computing.


           Job information
           ---------------

    hostname        = ponder
    program         = nwchem
    date            = Sat Aug  3 15:43:28 2024

    compiled        = Sat_Apr_09_17:12:10_2022
    source          = /build/nwchem-f1f4gx/nwchem-7.0.2/build-openmpi
    nwchem branch   = 7.0.2
    nwchem revision = N/A
    ga revision     = 5.8.1
    use scalapack   = T
    input           = C1C2C1C2_mol_9_conformer_0.nw
    prefix          = C1C2C1C2_mol_9_conformer_0.
    data base       = ./C1C2C1C2_mol_9_conformer_0.db
    status          = startup
    nproc           =       40
    time left       =     -1s



           Memory information
           ------------------

    heap     =  131071996 doubles =   1000.0 Mbytes
    stack    =  131072001 doubles =   1000.0 Mbytes
    global   =  262144000 doubles =   2000.0 Mbytes (distinct from heap & stack)
    total    =  524287997 doubles =   4000.0 Mbytes
    verify   = yes
    hardfail = no 


           Directory information
           ---------------------

  0 permanent = .
  0 scratch   = .




                                NWChem Input Module
                                -------------------


                               Molecule conformer 0
                               --------------------

 Scaling coordinates for geometry "geometry" by  1.889725989
 (inverse scale =  0.529177249)

 CS  symmetry detected

          ------
          auto-z
          ------
  no constraints, skipping    0.0000000000000000     
  no constraints, skipping    0.0000000000000000     


                             Geometry "geometry" -> ""
                             -------------------------

 Output coordinates in angstroms (scale by  1.889725989 to convert to a.u.)

  No.       Tag          Charge          X              Y              Z
 ---- ---------------- ---------- -------------- -------------- --------------
    1 C                    6.0000     0.00801899    -0.09375258     1.26819000
    2 C                    6.0000    -0.78937266    -0.02516595     0.00000000
    3 C                    6.0000     0.74655624     0.26869649     0.00000000
    4 C                    6.0000     0.00801899    -0.09375258    -1.26819000
    5 H                    1.0000    -0.15276903     0.75842425     1.96221278
    6 H                    1.0000     0.14604491    -1.13488772     1.63378695
    7 H                    1.0000    -1.37115633     0.92198132     0.00000000
    8 H                    1.0000     1.54527521    -0.50520671     0.00000000
    9 H                    1.0000    -0.15276903     0.75842425    -1.96221278
   10 H                    1.0000     0.14604491    -1.13488772    -1.63378695

      Atomic Mass 
      ----------- 

      C                 12.000000
      H                  1.007825


 Effective nuclear repulsion energy (a.u.)     114.6652939000

            Nuclear Dipole moment (a.u.) 
            ----------------------------
        X                 Y               Z
 ---------------- ---------------- ----------------
    -0.0000000000     0.0000000000     0.0000000000

      Symmetry information
      --------------------

 Group name             Cs        
 Group number              2
 Group order               2
 No. of unique centers     7

      Symmetry unique atoms

     1    2    3    5    6    7    8



                                Z-matrix (autoz)
                                -------- 

 Units are Angstrom for bonds and degrees for angles

      Type          Name      I     J     K     L     M      Value
      ----------- --------  ----- ----- ----- ----- ----- ----------
    1 Stretch                  1     2                       1.49961
    2 Stretch                  1     3                       1.51166
    3 Stretch                  1     5                       1.11073
    4 Stretch                  1     6                       1.11206
    5 Stretch                  2     3                       1.56379
    6 Stretch                  2     4                       1.49961
    7 Stretch                  2     7                       1.11156
    8 Stretch                  3     4                       1.51166
    9 Stretch                  3     8                       1.11215
   10 Stretch                  4     9                       1.11073
   11 Stretch                  4    10                       1.11206
   12 Bend                     1     2     3                59.09183
   13 Bend                     1     2     4               115.48917
   14 Bend                     1     2     7               108.49831
   15 Bend                     1     3     2                58.33756
   16 Bend                     1     3     4               114.05656
   17 Bend                     1     3     8               100.60436
   18 Bend                     2     1     3                62.57061
   19 Bend                     2     1     5               114.60406
   20 Bend                     2     1     6               112.75793
   21 Bend                     2     3     4                58.33756
   22 Bend                     2     3     8               125.07279
   23 Bend                     2     4     3                62.57061
   24 Bend                     2     4     9               114.60406
   25 Bend                     2     4    10               112.75793
   26 Bend                     3     1     5               114.26547
   27 Bend                     3     1     6               116.08126
   28 Bend                     3     2     4                59.09183
   29 Bend                     3     2     7               110.72901
   30 Bend                     3     4     9               114.26547
   31 Bend                     3     4    10               116.08126
   32 Bend                     4     2     7               108.49831
   33 Bend                     4     3     8               100.60436
   34 Bend                     5     1     6               122.06214
   35 Bend                     9     4    10               122.06214
   36 Torsion                  1     2     3     4         160.56203
   37 Torsion                  1     2     3     8          80.28101
   38 Torsion                  1     2     4     3         -18.44027
   39 Torsion                  1     2     4     9        -124.19934
   40 Torsion                  1     2     4    10          90.18816
   41 Torsion                  1     3     2     4        -160.56203
   42 Torsion                  1     3     2     7          99.71899
   43 Torsion                  1     3     4     2          18.07100
   44 Torsion                  1     3     4     9         124.36562
   45 Torsion                  1     3     4    10         -85.29684
   46 Torsion                  2     1     3     4         -18.07100
   47 Torsion                  2     1     3     8        -124.84581
   48 Torsion                  2     3     1     5        -106.29462
   49 Torsion                  2     3     1     6         103.36784
   50 Torsion                  2     3     4     9         106.29462
   51 Torsion                  2     3     4    10        -103.36784
   52 Torsion                  2     4     3     8         124.84581
   53 Torsion                  3     1     2     4          18.44027
   54 Torsion                  3     1     2     7        -103.57455
   55 Torsion                  3     2     1     5         105.75907
   56 Torsion                  3     2     1     6        -108.62843
   57 Torsion                  3     2     4     9        -105.75907
   58 Torsion                  3     2     4    10         108.62843
   59 Torsion                  3     4     2     7         103.57455
   60 Torsion                  4     2     1     5         124.19934
   61 Torsion                  4     2     1     6         -90.18816
   62 Torsion                  4     2     3     8         -80.28101
   63 Torsion                  4     3     1     5        -124.36562
   64 Torsion                  4     3     1     6          85.29684
   65 Torsion                  4     3     2     7         -99.71899
   66 Torsion                  5     1     2     7           2.18452
   67 Torsion                  5     1     3     8         128.85957
   68 Torsion                  6     1     2     7         147.79702
   69 Torsion                  6     1     3     8         -21.47797
   70 Torsion                  7     2     3     8         180.00000
   71 Torsion                  7     2     4     9          -2.18452
   72 Torsion                  7     2     4    10        -147.79702
   73 Torsion                  8     3     4     9        -128.85957
   74 Torsion                  8     3     4    10          21.47797


            XYZ format geometry
            -------------------
    10
 geometry
 C                     0.00801899    -0.09375258     1.26819000
 C                    -0.78937266    -0.02516595     0.00000000
 C                     0.74655624     0.26869649     0.00000000
 C                     0.00801899    -0.09375258    -1.26819000
 H                    -0.15276903     0.75842425     1.96221278
 H                     0.14604491    -1.13488772     1.63378695
 H                    -1.37115633     0.92198132     0.00000000
 H                     1.54527521    -0.50520671     0.00000000
 H                    -0.15276903     0.75842425    -1.96221278
 H                     0.14604491    -1.13488772    -1.63378695

 ==============================================================================
                                internuclear distances
 ------------------------------------------------------------------------------
       center one      |      center two      | atomic units |  angstroms
 ------------------------------------------------------------------------------
    2 C                |   1 C                |     2.83386  |     1.49961
    3 C                |   1 C                |     2.85662  |     1.51166
    3 C                |   2 C                |     2.95513  |     1.56379
    4 C                |   2 C                |     2.83386  |     1.49961
    4 C                |   3 C                |     2.85662  |     1.51166
    5 H                |   1 C                |     2.09898  |     1.11073
    6 H                |   1 C                |     2.10149  |     1.11206
    7 H                |   2 C                |     2.10054  |     1.11156
    8 H                |   3 C                |     2.10166  |     1.11215
    9 H                |   4 C                |     2.09898  |     1.11073
   10 H                |   4 C                |     2.10149  |     1.11206
 ------------------------------------------------------------------------------
                         number of included internuclear distances:         11
 ==============================================================================



 ==============================================================================
                                 internuclear angles
 ------------------------------------------------------------------------------
        center 1       |       center 2       |       center 3       |  degrees
 ------------------------------------------------------------------------------
    2 C                |   1 C                |   3 C                |    62.57
    2 C                |   1 C                |   5 H                |   114.60
    2 C                |   1 C                |   6 H                |   112.76
    3 C                |   1 C                |   5 H                |   114.27
    3 C                |   1 C                |   6 H                |   116.08
    5 H                |   1 C                |   6 H                |   122.06
    2 C                |   1 C                |   3 C                |    62.57
    1 C                |   2 C                |   4 C                |   115.49
    1 C                |   2 C                |   7 H                |   108.50
    2 C                |   4 C                |   3 C                |    62.57
    3 C                |   2 C                |   7 H                |   110.73
    4 C                |   2 C                |   7 H                |   108.50
    3 C                |   1 C                |   2 C                |    62.57
    1 C                |   3 C                |   4 C                |   114.06
    1 C                |   3 C                |   8 H                |   100.60
    3 C                |   4 C                |   2 C                |    62.57
    2 C                |   3 C                |   8 H                |   125.07
    4 C                |   3 C                |   8 H                |   100.60
    2 C                |   4 C                |   3 C                |    62.57
    2 C                |   4 C                |   9 H                |   114.60
    2 C                |   4 C                |  10 H                |   112.76
    3 C                |   4 C                |   9 H                |   114.27
    3 C                |   4 C                |  10 H                |   116.08
    9 H                |   4 C                |  10 H                |   122.06
 ------------------------------------------------------------------------------
                            number of included internuclear angles:         24
 ==============================================================================





 Summary of "ao basis" -> "" (spherical)
 ------------------------------------------------------------------------------
       Tag                 Description            Shells   Functions and Types
 ---------------- ------------------------------  ------  ---------------------
 *                           6-311G                   on all atoms 




                           NWChem Geometry Optimization
                           ----------------------------




                               Molecule conformer 0


  no constraints, skipping    0.0000000000000000     
 maximum gradient threshold         (gmax) =   0.000450
 rms gradient threshold             (grms) =   0.000300
 maximum cartesian step threshold   (xmax) =   0.001800
 rms cartesian step threshold       (xrms) =   0.001200
 fixed trust radius                (trust) =   0.300000
 maximum step size to saddle      (sadstp) =   0.100000
 energy precision                  (eprec) =   5.0D-06
 maximum number of steps          (nptopt) =  500
 initial hessian option           (inhess) =    0
 line search option               (linopt) =    1
 hessian update option            (modupd) =    1
 saddle point option              (modsad) =    0
 initial eigen-mode to follow     (moddir) =    0
 initial variable to follow       (vardir) =    0
 follow first negative mode     (firstneg) =    T
 apply conjugacy                    (opcg) =    F
 source of zmatrix                         =   autoz   


          -------------------
          Energy Minimization
          -------------------


 Names of Z-matrix variables 
    1              2              3              4              5         
    6              7              8              9             10         
   11             12             13             14             15         
   16             17             18             19             20         
   21             22             23             24             25         
   26             27             28             29             30         
   31             32             33             34             35         
   36             37             38             39             40         
   41             42             43             44             45         
   46             47             48             49             50         
   51             52             53             54             55         
   56             57             58             59             60         
   61             62             63             64             65         
   66             67             68             69             70         
   71             72             73             74         

 Variables with the same non-blank name are constrained to be equal


 Using diagonal initial Hessian 
 Scaling for Hessian diagonals: bonds = 1.00  angles = 0.25  torsions = 0.10

          --------
          Step   0
          --------


                         Geometry "geometry" -> "geometry"
                         ---------------------------------

 Output coordinates in angstroms (scale by  1.889725989 to convert to a.u.)

  No.       Tag          Charge          X              Y              Z
 ---- ---------------- ---------- -------------- -------------- --------------
    1 C                    6.0000     0.00801899    -0.09375258     1.26819000
    2 C                    6.0000    -0.78937266    -0.02516595     0.00000000
    3 C                    6.0000     0.74655624     0.26869649     0.00000000
    4 C                    6.0000     0.00801899    -0.09375258    -1.26819000
    5 H                    1.0000    -0.15276903     0.75842425     1.96221278
    6 H                    1.0000     0.14604491    -1.13488772     1.63378695
    7 H                    1.0000    -1.37115633     0.92198132     0.00000000
    8 H                    1.0000     1.54527521    -0.50520671     0.00000000
    9 H                    1.0000    -0.15276903     0.75842425    -1.96221278
   10 H                    1.0000     0.14604491    -1.13488772    -1.63378695

      Atomic Mass 
      ----------- 

      C                 12.000000
      H                  1.007825


 Effective nuclear repulsion energy (a.u.)     114.6652939000

            Nuclear Dipole moment (a.u.) 
            ----------------------------
        X                 Y               Z
 ---------------- ---------------- ----------------
    -0.0000000000     0.0000000000     0.0000000000

      Symmetry information
      --------------------

 Group name             Cs        
 Group number              2
 Group order               2
 No. of unique centers     7

      Symmetry unique atoms

     1    2    3    5    6    7    8


                                 NWChem DFT Module
                                 -----------------


                               Molecule conformer 0


                      Basis "ao basis" -> "ao basis" (spherical)
                      -----
  C (Carbon)
  ----------
            Exponent  Coefficients 
       -------------- ---------------------------------------------------------
  1 S  4.56324000E+03  0.001967
  1 S  6.82024000E+02  0.015231
  1 S  1.54973000E+02  0.076127
  1 S  4.44553000E+01  0.260801
  1 S  1.30290000E+01  0.616462
  1 S  1.82773000E+00  0.221006

  2 S  2.09642000E+01  0.114660
  2 S  4.80331000E+00  0.919999
  2 S  1.45933000E+00 -0.003031

  3 P  2.09642000E+01  0.040249
  3 P  4.80331000E+00  0.237594
  3 P  1.45933000E+00  0.815854

  4 S  4.83456000E-01  1.000000

  5 P  4.83456000E-01  1.000000

  6 S  1.45585000E-01  1.000000

  7 P  1.45585000E-01  1.000000

  H (Hydrogen)
  ------------
            Exponent  Coefficients 
       -------------- ---------------------------------------------------------
  1 S  3.38650000E+01  0.025494
  1 S  5.09479000E+00  0.190373
  1 S  1.15879000E+00  0.852161

  2 S  3.25840000E-01  1.000000

  3 S  1.02741000E-01  1.000000



 Summary of "ao basis" -> "ao basis" (spherical)
 ------------------------------------------------------------------------------
       Tag                 Description            Shells   Functions and Types
 ---------------- ------------------------------  ------  ---------------------
 C                           6-311G                  7       13   4s3p
 H                           6-311G                  3        3   3s




 Summary of "ao basis" -> "ao basis" (spherical)
 ------------------------------------------------------------------------------
       Tag                 Description            Shells   Functions and Types
 ---------------- ------------------------------  ------  ---------------------
 C                           6-311G                  7       13   4s3p
 H                           6-311G                  3        3   3s


      Symmetry analysis of basis
      --------------------------

        a'         45
        a"         25

  Caching 1-el integrals 

            General Information
            -------------------
          SCF calculation type: DFT
          Wavefunction type:  closed shell.
          No. of atoms     :    10
          No. of electrons :    30
           Alpha electrons :    15
            Beta electrons :    15
          Charge           :     0
          Spin multiplicity:     1
          Use of symmetry is: on ; symmetry adaption is: on 
          Maximum number of iterations: ***
          This is a Direct SCF calculation.
          AO basis - number of functions:    70
                     number of shells:    46
          Convergence on energy requested:  1.00D-06
          Convergence on density requested:  1.00D-05
          Convergence on gradient requested:  5.00D-04

              XC Information
              --------------
                         B3LYP Method XC Potential
                     Hartree-Fock (Exact) Exchange  0.200          
                        Slater Exchange Functional  0.800 local    
                    Becke 1988 Exchange Functional  0.720 non-local
              Lee-Yang-Parr Correlation Functional  0.810          
                  VWN I RPA Correlation Functional  0.190 local    

             Grid Information
             ----------------
          Grid used for XC integration:  fine      
          Radial quadrature: Mura-Knowles        
          Angular quadrature: Lebedev. 
          Tag              B.-S. Rad. Rad. Pts. Rad. Cut. Ang. Pts.
          ---              ---------- --------- --------- ---------
          C                   0.70       70          10.0       590
          H                   0.35       60          11.0       590
          Grid pruning is: on 
          Number of quadrature shells:   450
          Spatial weights used:  Erf1

          Convergence Information
          -----------------------
          Convergence aids based upon iterative change in 
          total energy or number of iterations. 
          Levelshifting, if invoked, occurs when the 
          HOMO/LUMO gap drops below (HL_TOL):  1.00D-02
          DIIS, if invoked, will attempt to extrapolate 
          using up to (NFOCK): 10 stored Fock matrices.

                    Damping( 0%)  Levelshifting(0.5)       DIIS
                  --------------- ------------------- ---------------
          dE  on:    start            ASAP                start   
          dE off:    2 iters        *** iters           *** iters 


      Screening Tolerance Information
      -------------------------------
          Density screening/tol_rho:  1.00D-10
          AO Gaussian exp screening on grid/accAOfunc:  14
          CD Gaussian exp screening on grid/accCDfunc:  20
          XC Gaussian exp screening on grid/accXCfunc:  20
          Schwarz screening/accCoul:  1.00D-08

          Performing ZORA calculations
          ----------------------------


      Superposition of Atomic Density Guess
      -------------------------------------

 Sum of atomic energies:        -153.67306699

 Read atomic ZORA corrections from ./C1C2C1C2_mol_9_conformer_0.zora_sf

 dft_zora_read: failed to open./C1C2C1C2_mol_9_conformer_0.zora_sf
 Forcing recalculation of ZORA corrections
       Generating atomic ZORA corrections
       ----------------------------------

 In dft_scf:: zora:Knucl= F

 Grid_pts file          = ./C1C2C1C2_mol_9_conformer_0.gridpts.00
 Record size in doubles =  12289        No. of grid_pts per rec  =   3070
 Max. records in memory =      4        Max. recs in file   =     13547

 Grid integrated density:      29.999988127369
 Requested integration accuracy:   0.10E-06

 Wrote atomic ZORA corrections to ./C1C2C1C2_mol_9_conformer_0.zora_sf


      Superposition of Atomic Density Guess
      -------------------------------------

 Sum of atomic energies:        -153.67306699

      Non-variational initial energy
      ------------------------------

 Total energy =    -156.704862
 1-e energy   =    -431.501079
 2-e energy   =     160.130923
 HOMO         =      -0.176275
 LUMO         =      -0.053792


      Symmetry analysis of molecular orbitals - initial
      -------------------------------------------------

  Numbering of irreducible representations: 

     1 a'          2 a"      

  Orbital symmetries:

     1 a'          2 a"          3 a'          4 a'          5 a'      
     6 a"          7 a'          8 a'          9 a'         10 a'      
    11 a"         12 a"         13 a"         14 a'         15 a'      
    16 a'         17 a'         18 a'         19 a"         20 a'      
    21 a"         22 a'         23 a'         24 a"         25 a"      

   Time after variat. SCF:      5.4
   Time prior to 1st pass:      5.4
 Grid integrated density:      29.999993765717
 Requested integration accuracy:   0.10E-06

           Memory utilization after 1st SCF pass: 
           Heap Space remaining (MW):      131.02           131016820
          Stack Space remaining (MW):      131.06           131061516

   convergence    iter        energy       DeltaE   RMS-Dens  Diis-err    time
 ---------------- ----- ----------------- --------- --------- ---------  ------
 d= 0,ls=0.0,diis     1   -155.7816616682 -2.70D+02  2.55D-02  6.98D-01     7.3
 Grid integrated density:      29.999995124617
 Requested integration accuracy:   0.10E-06
 d= 0,ls=0.0,diis     2   -155.6686898088  1.13D-01  2.26D-02  1.17D+00     9.0
 Grid integrated density:      29.999994752945
 Requested integration accuracy:   0.10E-06
 d= 0,ls=0.0,diis     3   -155.7991340274 -1.30D-01  8.24D-03  3.88D-01    10.9
 Grid integrated density:      29.999994800724
 Requested integration accuracy:   0.10E-06
 d= 0,ls=0.0,diis     4   -155.8506619238 -5.15D-02  2.62D-03  3.54D-02    12.6
 Grid integrated density:      29.999994686975
 Requested integration accuracy:   0.10E-06
 d= 0,ls=0.0,diis     5   -155.8544444226 -3.78D-03  9.30D-04  5.46D-03    14.3
 Grid integrated density:      29.999995033494
 Requested integration accuracy:   0.10E-06
  Resetting Diis
 d= 0,ls=0.0,diis     6   -155.8551556816 -7.11D-04  3.36D-04  4.57D-04    16.3
 Grid integrated density:      29.999995015958
 Requested integration accuracy:   0.10E-06
 d= 0,ls=0.0,diis     7   -155.8552142948 -5.86D-05  1.26D-04  1.68D-05    18.1
 Grid integrated density:      29.999995018816
 Requested integration accuracy:   0.10E-06
 d= 0,ls=0.0,diis     8   -155.8552090403  5.25D-06  1.06D-04  5.32D-05    19.5
 Grid integrated density:      29.999995015461
 Requested integration accuracy:   0.10E-06
 d= 0,ls=0.0,diis     9   -155.8552164237 -7.38D-06  2.00D-05  2.90D-06    21.3
 Grid integrated density:      29.999995014609
 Requested integration accuracy:   0.10E-06
 d= 0,ls=0.0,diis    10   -155.8552167902 -3.66D-07  1.17D-05  2.31D-07    23.2
 Grid integrated density:      29.999995013980
 Requested integration accuracy:   0.10E-06
 d= 0,ls=0.0,diis    11   -155.8552168229 -3.27D-08  6.32D-06  5.91D-08    24.9
(nogshift,skip_gshiftAOev,done_Fji)=( 1,F,F)


         Total DFT energy =     -155.855216822873
      One electron energy =     -434.417239375536
           Coulomb energy =      187.781308081004
    Exchange-Corr. energy =      -23.884579428316
 Nuclear repulsion energy =      114.665293899976

       Scaling correction =        0.035129448823

 Numeric. integr. density =       29.999995013980

     Total iterative time =     19.6s



                  Occupations of the irreducible representations
                  ----------------------------------------------

                     irrep           alpha         beta
                     --------     --------     --------
                     a'               10.0         10.0
                     a"                5.0          5.0


 center of mass
 --------------
 x =  -0.00557381 y =   0.01166144 z =   0.00000000

 moments of inertia (a.u.)
 ------------------
         206.024556507509          -0.000000004796           0.000000000000
          -0.000000004796         251.039977717911           0.000000000000
           0.000000000000           0.000000000000          87.527587997928

            General Information
            -------------------
          SCF calculation type: DFT
          Wavefunction type:  closed shell.
          No. of atoms     :    10
          No. of electrons :    30
           Alpha electrons :    15
            Beta electrons :    15
          Charge           :     0
          Spin multiplicity:     1
          Use of symmetry is: on ; symmetry adaption is: on 
          Maximum number of iterations: ***
          This is a Direct SCF calculation.
          AO basis - number of functions:    70
                     number of shells:    46
          Convergence on energy requested:  1.00D-06
          Convergence on density requested:  1.00D-05
          Convergence on gradient requested:  5.00D-04

              XC Information
              --------------
                         B3LYP Method XC Potential
                     Hartree-Fock (Exact) Exchange  0.200          
                        Slater Exchange Functional  0.800 local    
                    Becke 1988 Exchange Functional  0.720 non-local
              Lee-Yang-Parr Correlation Functional  0.810          
                  VWN I RPA Correlation Functional  0.190 local    

             Grid Information
             ----------------
          Grid used for XC integration:  fine      
          Radial quadrature: Mura-Knowles        
          Angular quadrature: Lebedev. 
          Tag              B.-S. Rad. Rad. Pts. Rad. Cut. Ang. Pts.
          ---              ---------- --------- --------- ---------
          C                   0.70       70          10.0       590
          H                   0.35       60          11.0       590
          Grid pruning is: on 
          Number of quadrature shells:   450
          Spatial weights used:  Erf1

          Convergence Information
          -----------------------
          Convergence aids based upon iterative change in 
          total energy or number of iterations. 
          Levelshifting, if invoked, occurs when the 
          HOMO/LUMO gap drops below (HL_TOL):  1.00D-02
          DIIS, if invoked, will attempt to extrapolate 
          using up to (NFOCK): 10 stored Fock matrices.

                    Damping( 0%)  Levelshifting(0.5)       DIIS
                  --------------- ------------------- ---------------
          dE  on:    start            ASAP                start   
          dE off:    2 iters        *** iters           *** iters 


      Screening Tolerance Information
      -------------------------------
          Density screening/tol_rho:  1.00D-10
          AO Gaussian exp screening on grid/accAOfunc:  14
          CD Gaussian exp screening on grid/accCDfunc:  20
          XC Gaussian exp screening on grid/accXCfunc:  20
          Schwarz screening/accCoul:  1.00D-08



                            NWChem DFT Gradient Module
                            --------------------------


                               Molecule conformer 0



  charge          =   0.00
  wavefunction    = closed shell

  Using symmetry


                         DFT ENERGY GRADIENTS

    atom               coordinates                        gradient
                 x          y          z           x          y          z
   1 C       0.015154  -0.177167   2.396532    0.029919   0.007876   0.002047
   2 C      -1.491698  -0.047557   0.000000    0.084829   0.003509   0.000000
   3 C       1.410787   0.507763   0.000000   -0.142582  -0.033452   0.000000
   4 C       0.015154  -0.177167  -2.396532    0.029919   0.007876  -0.002047
   5 H      -0.288692   1.433214   3.708044    0.009022   0.023784   0.003755
   6 H       0.275985  -2.144627   3.087410   -0.011746  -0.023065  -0.004536
   7 H      -2.591110   1.742292   0.000000   -0.013286   0.001524   0.000000
   8 H       2.920147  -0.954702   0.000000    0.016649   0.011230   0.000000
   9 H      -0.288692   1.433214  -3.708044    0.009022   0.023784  -0.003755
  10 H       0.275985  -2.144627  -3.087410   -0.011746  -0.023065   0.004536

                 ----------------------------------------
                 |  Time  |  1-e(secs)   |  2-e(secs)   |
                 ----------------------------------------
                 |  CPU   |       0.00   |       0.04   |
                 ----------------------------------------
                 |  WALL  |       0.00   |       0.04   |
                 ----------------------------------------
  no constraints, skipping    0.0000000000000000     

@ Step       Energy      Delta E   Gmax     Grms     Xrms     Xmax   Walltime
@ ---- ---------------- -------- -------- -------- -------- -------- --------
@    0    -155.85521682  0.0D+00  0.03330  0.00864  0.00000  0.00000     27.2
                                                                    



                                Z-matrix (autoz)
                                -------- 

 Units are Angstrom for bonds and degrees for angles

      Type          Name      I     J     K     L     M      Value     Gradient
      ----------- --------  ----- ----- ----- ----- ----- ---------- ----------
    1 Stretch                  1     2                       1.49961   -0.01215
    2 Stretch                  1     3                       1.51166   -0.02184
    3 Stretch                  1     5                       1.11073    0.01929
    4 Stretch                  1     6                       1.11206    0.01865
    5 Stretch                  2     3                       1.56379   -0.03330
    6 Stretch                  2     4                       1.49961   -0.01215
    7 Stretch                  2     7                       1.11156    0.00825
    8 Stretch                  3     4                       1.51166   -0.02184
    9 Stretch                  3     8                       1.11215    0.00414
   10 Stretch                  4     9                       1.11073    0.01929
   11 Stretch                  4    10                       1.11206    0.01865
   12 Bend                     1     2     3                59.09183    0.00093
   13 Bend                     1     2     4               115.48917    0.00242
   14 Bend                     1     2     7               108.49831   -0.00105
   15 Bend                     1     3     2                58.33756    0.01119
   16 Bend                     1     3     4               114.05656    0.02191
   17 Bend                     1     3     8               100.60436   -0.00392
   18 Bend                     2     1     3                62.57061   -0.01212
   19 Bend                     2     1     5               114.60406    0.00095
   20 Bend                     2     1     6               112.75793    0.00115
   21 Bend                     2     3     4                58.33756    0.01119
   22 Bend                     2     3     8               125.07279    0.00315
   23 Bend                     2     4     3                62.57061   -0.01212
   24 Bend                     2     4     9               114.60406    0.00095
   25 Bend                     2     4    10               112.75793    0.00115
   26 Bend                     3     1     5               114.26547   -0.00011
   27 Bend                     3     1     6               116.08126    0.00188
   28 Bend                     3     2     4                59.09183    0.00093
   29 Bend                     3     2     7               110.72901    0.00037
   30 Bend                     3     4     9               114.26547   -0.00011
   31 Bend                     3     4    10               116.08126    0.00188
   32 Bend                     4     2     7               108.49831   -0.00105
   33 Bend                     4     3     8               100.60436   -0.00392
   34 Bend                     5     1     6               122.06214    0.00171
   35 Bend                     9     4    10               122.06214    0.00171
   36 Torsion                  1     2     3     4         160.56203    0.00240
   37 Torsion                  1     2     3     8          80.28101    0.00120
   38 Torsion                  1     2     4     3         -18.44027    0.00170
   39 Torsion                  1     2     4     9        -124.19934    0.00620
   40 Torsion                  1     2     4    10          90.18816    0.00016
   41 Torsion                  1     3     2     4        -160.56203   -0.00240
   42 Torsion                  1     3     2     7          99.71899   -0.00120
   43 Torsion                  1     3     4     2          18.07100    0.00323
   44 Torsion                  1     3     4     9         124.36562    0.00053
   45 Torsion                  1     3     4    10         -85.29684    0.00725
   46 Torsion                  2     1     3     4         -18.07100   -0.00323
   47 Torsion                  2     1     3     8        -124.84581   -0.00393
   48 Torsion                  2     3     1     5        -106.29462    0.00270
   49 Torsion                  2     3     1     6         103.36784   -0.00402
   50 Torsion                  2     3     4     9         106.29462   -0.00270
   51 Torsion                  2     3     4    10        -103.36784    0.00402
   52 Torsion                  2     4     3     8         124.84581    0.00393
   53 Torsion                  3     1     2     4          18.44027   -0.00170
   54 Torsion                  3     1     2     7        -103.57455   -0.00118
   55 Torsion                  3     2     1     5         105.75907   -0.00451
   56 Torsion                  3     2     1     6        -108.62843    0.00153
   57 Torsion                  3     2     4     9        -105.75907    0.00451
   58 Torsion                  3     2     4    10         108.62843   -0.00153
   59 Torsion                  3     4     2     7         103.57455    0.00118
   60 Torsion                  4     2     1     5         124.19934   -0.00620
   61 Torsion                  4     2     1     6         -90.18816   -0.00016
   62 Torsion                  4     2     3     8         -80.28101   -0.00120
   63 Torsion                  4     3     1     5        -124.36562   -0.00053
   64 Torsion                  4     3     1     6          85.29684   -0.00725
   65 Torsion                  4     3     2     7         -99.71899    0.00120
   66 Torsion                  5     1     2     7           2.18452   -0.00569
   67 Torsion                  5     1     3     8         128.85957   -0.00123
   68 Torsion                  6     1     2     7         147.79702    0.00035
   69 Torsion                  6     1     3     8         -21.47797   -0.00795
   70 Torsion                  7     2     3     8         180.00000    0.00000
   71 Torsion                  7     2     4     9          -2.18452    0.00569
   72 Torsion                  7     2     4    10        -147.79702   -0.00035
   73 Torsion                  8     3     4     9        -128.85957    0.00123
   74 Torsion                  8     3     4    10          21.47797    0.00795

 Restricting large step in mode    2 eval= 3.3D-02 step=-4.4D-01 new=-3.0D-01
  no constraints, skipping    0.0000000000000000     
  no constraints, skipping    0.0000000000000000     
  no constraints, skipping    0.0000000000000000     
  no constraints, skipping    0.0000000000000000     
  no constraints, skipping    0.0000000000000000     
  no constraints, skipping    0.0000000000000000     
  no constraints, skipping    0.0000000000000000     
  no constraints, skipping    0.0000000000000000     

                                 NWChem DFT Module
                                 -----------------


                               Molecule conformer 0




 Summary of "ao basis" -> "ao basis" (spherical)
 ------------------------------------------------------------------------------
       Tag                 Description            Shells   Functions and Types
 ---------------- ------------------------------  ------  ---------------------
 C                           6-311G                  7       13   4s3p
 H                           6-311G                  3        3   3s


      Symmetry analysis of basis
      --------------------------

        a'         45
        a"         25

  Caching 1-el integrals 

            General Information
            -------------------
          SCF calculation type: DFT
          Wavefunction type:  closed shell.
          No. of atoms     :    10
          No. of electrons :    30
           Alpha electrons :    15
            Beta electrons :    15
          Charge           :     0
          Spin multiplicity:     1
          Use of symmetry is: on ; symmetry adaption is: on 
          Maximum number of iterations: ***
          This is a Direct SCF calculation.
          AO basis - number of functions:    70
                     number of shells:    46
          Convergence on energy requested:  1.00D-06
          Convergence on density requested:  1.00D-05
          Convergence on gradient requested:  5.00D-04

              XC Information
              --------------
                         B3LYP Method XC Potential
                     Hartree-Fock (Exact) Exchange  0.200          
                        Slater Exchange Functional  0.800 local    
                    Becke 1988 Exchange Functional  0.720 non-local
              Lee-Yang-Parr Correlation Functional  0.810          
                  VWN I RPA Correlation Functional  0.190 local    

             Grid Information
             ----------------
          Grid used for XC integration:  fine      
          Radial quadrature: Mura-Knowles        
          Angular quadrature: Lebedev. 
          Tag              B.-S. Rad. Rad. Pts. Rad. Cut. Ang. Pts.
          ---              ---------- --------- --------- ---------
          C                   0.70       70          10.0       590
          H                   0.35       60          11.0       590
          Grid pruning is: on 
          Number of quadrature shells:   450
          Spatial weights used:  Erf1

          Convergence Information
          -----------------------
          Convergence aids based upon iterative change in 
          total energy or number of iterations. 
          Levelshifting, if invoked, occurs when the 
          HOMO/LUMO gap drops below (HL_TOL):  1.00D-02
          DIIS, if invoked, will attempt to extrapolate 
          using up to (NFOCK): 10 stored Fock matrices.

                    Damping( 0%)  Levelshifting(0.5)       DIIS
                  --------------- ------------------- ---------------
          dE  on:    start            ASAP                start   
          dE off:    2 iters        *** iters           *** iters 


      Screening Tolerance Information
      -------------------------------
          Density screening/tol_rho:  1.00D-10
          AO Gaussian exp screening on grid/accAOfunc:  14
          CD Gaussian exp screening on grid/accCDfunc:  20
          XC Gaussian exp screening on grid/accXCfunc:  20
          Schwarz screening/accCoul:  1.00D-08

          Performing ZORA calculations
          ----------------------------


      Superposition of Atomic Density Guess
      -------------------------------------

 Sum of atomic energies:        -153.67306699

 Read atomic ZORA corrections from ./C1C2C1C2_mol_9_conformer_0.zora_sf

 Forcing recalculation of ZORA corrections
       Generating atomic ZORA corrections
       ----------------------------------

 In dft_scf:: zora:Knucl= F

 Grid_pts file          = ./C1C2C1C2_mol_9_conformer_0.gridpts.00
 Record size in doubles =  12289        No. of grid_pts per rec  =   3070
 Max. records in memory =      4        Max. recs in file   =     13547


 Wrote atomic ZORA corrections to ./C1C2C1C2_mol_9_conformer_0.zora_sf


 Loading old vectors from job with title :

Molecule conformer 0


      Symmetry analysis of molecular orbitals - initial
      -------------------------------------------------

  Numbering of irreducible representations: 

     1 a'          2 a"      

  Orbital symmetries:

     1 a"          2 a'          3 a'          4 a'          5 a'      
     6 a"          7 a'          8 a'          9 a'         10 a"      
    11 a'         12 a"         13 a"         14 a'         15 a'      
    16 a'         17 a'         18 a'         19 a"         20 a"      
    21 a'         22 a'         23 a'         24 a"         25 a'      

   Time after variat. SCF:     34.1
   Time prior to 1st pass:     34.1

           Memory utilization after 1st SCF pass: 
           Heap Space remaining (MW):      131.02           131016820
          Stack Space remaining (MW):      131.06           131061516

   convergence    iter        energy       DeltaE   RMS-Dens  Diis-err    time
 ---------------- ----- ----------------- --------- --------- ---------  ------
 d= 0,ls=0.0,diis     1   -155.8752835111 -2.70D+02  5.56D-03  3.21D-02    35.6
 d= 0,ls=0.0,diis     2   -155.8811281482 -5.84D-03  1.66D-03  5.70D-03    37.5
 d= 0,ls=0.0,diis     3   -155.8812900130 -1.62D-04  8.94D-04  4.52D-03    39.2
 d= 0,ls=0.0,diis     4   -155.8818039954 -5.14D-04  3.04D-04  4.44D-04    41.0
 d= 0,ls=0.0,diis     5   -155.8818689525 -6.50D-05  8.80D-05  2.65D-05    42.8
 d= 0,ls=0.0,diis     6   -155.8818725005 -3.55D-06  2.55D-05  2.00D-06    44.7
 d= 0,ls=0.0,diis     7   -155.8818727791 -2.79D-07  1.16D-05  1.34D-07    46.6
 d= 0,ls=0.0,diis     8   -155.8818728017 -2.26D-08  3.49D-06  3.71D-08    48.9
(nogshift,skip_gshiftAOev,done_Fji)=( 1,F,F)


         Total DFT energy =     -155.881872801742
      One electron energy =     -433.180325815944
           Coulomb energy =      187.200330809645
    Exchange-Corr. energy =      -23.908347299186
 Nuclear repulsion energy =      114.006469503742

       Scaling correction =        0.035114190820

 Numeric. integr. density =       30.000000652760

     Total iterative time =     14.9s



                  Occupations of the irreducible representations
                  ----------------------------------------------

                     irrep           alpha         beta
                     --------     --------     --------
                     a'               10.0         10.0
                     a"                5.0          5.0


 center of mass
 --------------
 x =   0.00979344 y =   0.02487610 z =   0.00000000

 moments of inertia (a.u.)
 ------------------
         201.318942321519          -0.980720271986           0.000000000000
          -0.980720271986         253.914177184143           0.000000000000
           0.000000000000           0.000000000000          93.871441584718
 Line search: 
     step= 1.00 grad=-3.3D-02 hess= 6.2D-03 energy=   -155.881873 mode=downhill
 new step= 2.66                   predicted energy=   -155.898854
  no constraints, skipping    0.0000000000000000     
  no constraints, skipping    0.0000000000000000     
  no constraints, skipping    0.0000000000000000     
  no constraints, skipping    0.0000000000000000     
  no constraints, skipping    0.0000000000000000     
  no constraints, skipping    0.0000000000000000     
  no constraints, skipping    0.0000000000000000     
  no constraints, skipping    0.0000000000000000     

          --------
          Step   1
          --------


                         Geometry "geometry" -> "geometry"
                         ---------------------------------

 Output coordinates in angstroms (scale by  1.889725989 to convert to a.u.)

  No.       Tag          Charge          X              Y              Z
 ---- ---------------- ---------- -------------- -------------- --------------
    1 C                    6.0000    -0.02238872    -0.08908721     1.21935122
    2 C                    6.0000    -0.83139054     0.00986297     0.00000000
    3 C                    6.0000     0.95953370     0.30854648     0.00000000
    4 C                    6.0000    -0.02238872    -0.08908721    -1.21935122
    5 H                    1.0000    -0.22751435     0.63254648     1.92389063
    6 H                    1.0000     0.11308539    -1.04293932     1.59209508
    7 H                    1.0000    -1.36854318     0.94289006     0.00000000
    8 H                    1.0000     1.64792757    -0.54246635     0.00000000
    9 H                    1.0000    -0.22751435     0.63254648    -1.92389063
   10 H                    1.0000     0.11308539    -1.04293932    -1.59209508

      Atomic Mass 
      ----------- 

      C                 12.000000
      H                  1.007825


 Effective nuclear repulsion energy (a.u.)     113.3281892115

            Nuclear Dipole moment (a.u.) 
            ----------------------------
        X                 Y               Z
 ---------------- ---------------- ----------------
     1.0407113725     0.7956657107     0.0000000000

      Symmetry information
      --------------------

 Group name             Cs        
 Group number              2
 Group order               2
 No. of unique centers     7

      Symmetry unique atoms

     1    2    3    5    6    7    8


                                 NWChem DFT Module
                                 -----------------


                               Molecule conformer 0




 Summary of "ao basis" -> "ao basis" (spherical)
 ------------------------------------------------------------------------------
       Tag                 Description            Shells   Functions and Types
 ---------------- ------------------------------  ------  ---------------------
 C                           6-311G                  7       13   4s3p
 H                           6-311G                  3        3   3s


      Symmetry analysis of basis
      --------------------------

        a'         45
        a"         25

  Caching 1-el integrals 

            General Information
            -------------------
          SCF calculation type: DFT
          Wavefunction type:  closed shell.
          No. of atoms     :    10
          No. of electrons :    30
           Alpha electrons :    15
            Beta electrons :    15
          Charge           :     0
          Spin multiplicity:     1
          Use of symmetry is: on ; symmetry adaption is: on 
          Maximum number of iterations: ***
          This is a Direct SCF calculation.
          AO basis - number of functions:    70
                     number of shells:    46
          Convergence on energy requested:  1.00D-06
          Convergence on density requested:  1.00D-05
          Convergence on gradient requested:  5.00D-04

              XC Information
              --------------
                         B3LYP Method XC Potential
                     Hartree-Fock (Exact) Exchange  0.200          
                        Slater Exchange Functional  0.800 local    
                    Becke 1988 Exchange Functional  0.720 non-local
              Lee-Yang-Parr Correlation Functional  0.810          
                  VWN I RPA Correlation Functional  0.190 local    

             Grid Information
             ----------------
          Grid used for XC integration:  fine      
          Radial quadrature: Mura-Knowles        
          Angular quadrature: Lebedev. 
          Tag              B.-S. Rad. Rad. Pts. Rad. Cut. Ang. Pts.
          ---              ---------- --------- --------- ---------
          C                   0.70       70          10.0       590
          H                   0.35       60          11.0       590
          Grid pruning is: on 
          Number of quadrature shells:   450
          Spatial weights used:  Erf1

          Convergence Information
          -----------------------
          Convergence aids based upon iterative change in 
          total energy or number of iterations. 
          Levelshifting, if invoked, occurs when the 
          HOMO/LUMO gap drops below (HL_TOL):  1.00D-02
          DIIS, if invoked, will attempt to extrapolate 
          using up to (NFOCK): 10 stored Fock matrices.

                    Damping( 0%)  Levelshifting(0.5)       DIIS
                  --------------- ------------------- ---------------
          dE  on:    start            ASAP                start   
          dE off:    2 iters        *** iters           *** iters 


      Screening Tolerance Information
      -------------------------------
          Density screening/tol_rho:  1.00D-10
          AO Gaussian exp screening on grid/accAOfunc:  14
          CD Gaussian exp screening on grid/accCDfunc:  20
          XC Gaussian exp screening on grid/accXCfunc:  20
          Schwarz screening/accCoul:  1.00D-08

          Performing ZORA calculations
          ----------------------------


      Superposition of Atomic Density Guess
      -------------------------------------

 Sum of atomic energies:        -153.67306699

 Read atomic ZORA corrections from ./C1C2C1C2_mol_9_conformer_0.zora_sf

 Forcing recalculation of ZORA corrections
       Generating atomic ZORA corrections
       ----------------------------------

 In dft_scf:: zora:Knucl= F

 Grid_pts file          = ./C1C2C1C2_mol_9_conformer_0.gridpts.00
 Record size in doubles =  12289        No. of grid_pts per rec  =   3070
 Max. records in memory =      4        Max. recs in file   =     13537


 Wrote atomic ZORA corrections to ./C1C2C1C2_mol_9_conformer_0.zora_sf


 Loading old vectors from job with title :

Molecule conformer 0


      Symmetry analysis of molecular orbitals - initial
      -------------------------------------------------

  Numbering of irreducible representations: 

     1 a'          2 a"      

  Orbital symmetries:

     1 a'          2 a"          3 a'          4 a'          5 a'      
     6 a"          7 a'          8 a'          9 a'         10 a"      
    11 a'         12 a"         13 a"         14 a'         15 a'      
    16 a'         17 a'         18 a'         19 a"         20 a'      
    21 a"         22 a'         23 a'         24 a"         25 a"      

   Time after variat. SCF:     56.6
   Time prior to 1st pass:     56.6

           Memory utilization after 1st SCF pass: 
           Heap Space remaining (MW):      131.02           131016820
          Stack Space remaining (MW):      131.06           131061516

   convergence    iter        energy       DeltaE   RMS-Dens  Diis-err    time
 ---------------- ----- ----------------- --------- --------- ---------  ------
 d= 0,ls=0.0,diis     1   -155.8828854683 -2.69D+02  7.92D-03  7.47D-02    58.6
 d= 0,ls=0.0,diis     2   -155.8967609655 -1.39D-02  2.66D-03  1.45D-02    60.4
 d= 0,ls=0.0,diis     3   -155.8959536653  8.07D-04  2.18D-03  1.94D-02    62.1
 d= 0,ls=0.0,diis     4   -155.8979217965 -1.97D-03  7.75D-04  5.30D-03    63.7
 d= 0,ls=0.0,diis     5   -155.8987219171 -8.00D-04  1.04D-04  2.29D-05    65.2
 d= 0,ls=0.0,diis     6   -155.8987250928 -3.18D-06  4.18D-05  4.44D-06    66.6
 d= 0,ls=0.0,diis     7   -155.8987257262 -6.33D-07  1.37D-05  2.41D-07    68.8
 d= 0,ls=0.0,diis     8   -155.8987257682 -4.21D-08  4.00D-06  5.28D-08    70.6
(nogshift,skip_gshiftAOev,done_Fji)=( 1,F,F)


         Total DFT energy =     -155.898725768225
      One electron energy =     -431.883415626889
           Coulomb energy =      186.621712484873
    Exchange-Corr. energy =      -23.965211837748
 Nuclear repulsion energy =      113.328189211539

       Scaling correction =        0.035085238838

 Numeric. integr. density =       29.999999088365

     Total iterative time =     14.0s



                  Occupations of the irreducible representations
                  ----------------------------------------------

                     irrep           alpha         beta
                     --------     --------     --------
                     a'               10.0         10.0
                     a"                5.0          5.0


 center of mass
 --------------
 x =   0.03675857 y =   0.04402625 z =   0.00000000

 moments of inertia (a.u.)
 ------------------
         191.943658894481          -2.672851065890           0.000000000000
          -2.672851065890         258.340120908930           0.000000000000
           0.000000000000           0.000000000000         105.651386305775

            General Information
            -------------------
          SCF calculation type: DFT
          Wavefunction type:  closed shell.
          No. of atoms     :    10
          No. of electrons :    30
           Alpha electrons :    15
            Beta electrons :    15
          Charge           :     0
          Spin multiplicity:     1
          Use of symmetry is: on ; symmetry adaption is: on 
          Maximum number of iterations: ***
          This is a Direct SCF calculation.
          AO basis - number of functions:    70
                     number of shells:    46
          Convergence on energy requested:  1.00D-06
          Convergence on density requested:  1.00D-05
          Convergence on gradient requested:  5.00D-04

              XC Information
              --------------
                         B3LYP Method XC Potential
                     Hartree-Fock (Exact) Exchange  0.200          
                        Slater Exchange Functional  0.800 local    
                    Becke 1988 Exchange Functional  0.720 non-local
              Lee-Yang-Parr Correlation Functional  0.810          
                  VWN I RPA Correlation Functional  0.190 local    

             Grid Information
             ----------------
          Grid used for XC integration:  fine      
          Radial quadrature: Mura-Knowles        
          Angular quadrature: Lebedev. 
          Tag              B.-S. Rad. Rad. Pts. Rad. Cut. Ang. Pts.
          ---              ---------- --------- --------- ---------
          C                   0.70       70          10.0       590
          H                   0.35       60          11.0       590
          Grid pruning is: on 
          Number of quadrature shells:   450
          Spatial weights used:  Erf1

          Convergence Information
          -----------------------
          Convergence aids based upon iterative change in 
          total energy or number of iterations. 
          Levelshifting, if invoked, occurs when the 
          HOMO/LUMO gap drops below (HL_TOL):  1.00D-02
          DIIS, if invoked, will attempt to extrapolate 
          using up to (NFOCK): 10 stored Fock matrices.

                    Damping( 0%)  Levelshifting(0.5)       DIIS
                  --------------- ------------------- ---------------
          dE  on:    start            ASAP                start   
          dE off:    2 iters        *** iters           *** iters 


      Screening Tolerance Information
      -------------------------------
          Density screening/tol_rho:  1.00D-10
          AO Gaussian exp screening on grid/accAOfunc:  14
          CD Gaussian exp screening on grid/accCDfunc:  20
          XC Gaussian exp screening on grid/accXCfunc:  20
          Schwarz screening/accCoul:  1.00D-08



                            NWChem DFT Gradient Module
                            --------------------------


                               Molecule conformer 0



  charge          =   0.00
  wavefunction    = closed shell

  Using symmetry


                         DFT ENERGY GRADIENTS

    atom               coordinates                        gradient
                 x          y          z           x          y          z
   1 C      -0.042309  -0.168350   2.304240    0.010106  -0.004701   0.048775
   2 C      -1.571100   0.018638   0.000000    0.023891  -0.000054   0.000000
   3 C       1.813256   0.583068   0.000000   -0.036411  -0.011435   0.000000
   4 C      -0.042309  -0.168350  -2.304240    0.010106  -0.004701  -0.048775
   5 H      -0.429940   1.195340   3.635626    0.014450  -0.024978  -0.028852
   6 H       0.213700  -1.970870   3.008623   -0.021915   0.033126  -0.016682
   7 H      -2.586172   1.781804   0.000000    0.002434  -0.011661   0.000000
   8 H       3.114132  -1.025113   0.000000    0.004804   0.016256   0.000000
   9 H      -0.429940   1.195340  -3.635626    0.014450  -0.024978   0.028852
  10 H       0.213700  -1.970870  -3.008623   -0.021915   0.033126   0.016682

                 ----------------------------------------
                 |  Time  |  1-e(secs)   |  2-e(secs)   |
                 ----------------------------------------
                 |  CPU   |       0.00   |       0.04   |
                 ----------------------------------------
                 |  WALL  |       0.00   |       0.04   |
                 ----------------------------------------
  no constraints, skipping    0.0000000000000000     

  Step       Energy      Delta E   Gmax     Grms     Xrms     Xmax   Walltime
  ---- ---------------- -------- -------- -------- -------- -------- --------
@    1    -155.89872577 -4.4D-02  0.04015  0.00971  0.12741  0.40204     72.7
                                                                    



                                Z-matrix (autoz)
                                -------- 

 Units are Angstrom for bonds and degrees for angles

      Type          Name      I     J     K     L     M      Value     Gradient
      ----------- --------  ----- ----- ----- ----- ----- ---------- ----------
    1 Stretch                  1     2                       1.46666   -0.00397
    2 Stretch                  1     3                       1.61527   -0.00453
    3 Stretch                  1     5                       1.02918   -0.04015
    4 Stretch                  1     6                       1.03302   -0.03948
    5 Stretch                  2     3                       1.81566   -0.00959
    6 Stretch                  2     4                       1.46666   -0.00397
    7 Stretch                  2     7                       1.07660   -0.01132
    8 Stretch                  3     4                       1.61527   -0.00453
    9 Stretch                  3     8                       1.09458   -0.00962
   10 Stretch                  4     9                       1.02918   -0.04015
   11 Stretch                  4    10                       1.03302   -0.03948
   12 Bend                     1     2     3                57.79289    0.00203
   13 Bend                     1     2     4               112.48140    0.00403
   14 Bend                     1     2     7               109.49216   -0.00136
   15 Bend                     1     3     2                50.19970    0.00165
   16 Bend                     1     3     4                98.03141    0.00333
   17 Bend                     1     3     8               101.00656    0.00070
   18 Bend                     2     1     3                72.00742   -0.00369
   19 Bend                     2     1     5               114.32357    0.00119
   20 Bend                     2     1     6               115.76119   -0.00112
   21 Bend                     2     3     4                50.19970    0.00165
   22 Bend                     2     3     8               119.50136    0.00199
   23 Bend                     2     4     3                72.00742   -0.00369
   24 Bend                     2     4     9               114.32357    0.00119
   25 Bend                     2     4    10               115.76119   -0.00112
   26 Bend                     3     1     5               117.73108   -0.00064
   27 Bend                     3     1     6               114.83273    0.00329
   28 Bend                     3     2     4                57.79289    0.00203
   29 Bend                     3     2     7               110.46102   -0.00132
   30 Bend                     3     4     9               117.73108   -0.00064
   31 Bend                     3     4    10               114.83273    0.00329
   32 Bend                     4     2     7               109.49216   -0.00136
   33 Bend                     4     3     8               101.00656    0.00070
   34 Bend                     5     1     6               115.24988   -0.00020
   35 Bend                     9     4    10               115.24988   -0.00020
   36 Torsion                  1     2     3     4         158.57392    0.00073
   37 Torsion                  1     2     3     8          79.28696    0.00036
   38 Torsion                  1     2     4     3         -19.54289   -0.00039
   39 Torsion                  1     2     4     9        -132.50387    0.00181
   40 Torsion                  1     2     4    10          89.94219    0.00204
   41 Torsion                  1     3     2     4        -158.57392   -0.00073
   42 Torsion                  1     3     2     7         100.71304   -0.00036
   43 Torsion                  1     3     4     2          16.46521   -0.00000
   44 Torsion                  1     3     4     9         125.03913   -0.00017
   45 Torsion                  1     3     4    10         -94.21995    0.00319
   46 Torsion                  2     1     3     4         -16.46521    0.00000
   47 Torsion                  2     1     3     8        -119.40163   -0.00163
   48 Torsion                  2     3     1     5        -108.57391    0.00017
   49 Torsion                  2     3     1     6         110.68516   -0.00319
   50 Torsion                  2     3     4     9         108.57391   -0.00017
   51 Torsion                  2     3     4    10        -110.68516    0.00319
   52 Torsion                  2     4     3     8         119.40163    0.00163
   53 Torsion                  3     1     2     4          19.54289    0.00039
   54 Torsion                  3     1     2     7        -102.43280    0.00037
   55 Torsion                  3     2     1     5         112.96099   -0.00220
   56 Torsion                  3     2     1     6        -109.48508   -0.00243
   57 Torsion                  3     2     4     9        -112.96099    0.00220
   58 Torsion                  3     2     4    10         109.48508    0.00243
   59 Torsion                  3     4     2     7         102.43280   -0.00037
   60 Torsion                  4     2     1     5         132.50387   -0.00181
   61 Torsion                  4     2     1     6         -89.94219   -0.00204
   62 Torsion                  4     2     3     8         -79.28696   -0.00036
   63 Torsion                  4     3     1     5        -125.03913    0.00017
   64 Torsion                  4     3     1     6          94.21995   -0.00319
   65 Torsion                  4     3     2     7        -100.71304    0.00036
   66 Torsion                  5     1     2     7          10.52818   -0.00184
   67 Torsion                  5     1     3     8         132.02446   -0.00146
   68 Torsion                  6     1     2     7         148.08212   -0.00206
   69 Torsion                  6     1     3     8          -8.71647   -0.00482
   70 Torsion                  7     2     3     8         180.00000    0.00000
   71 Torsion                  7     2     4     9         -10.52818    0.00184
   72 Torsion                  7     2     4    10        -148.08212    0.00206
   73 Torsion                  8     3     4     9        -132.02446    0.00146
   74 Torsion                  8     3     4    10           8.71647    0.00482

 Restricting large step in mode    1 eval= 1.8D-02 step= 7.3D-01 new= 3.0D-01
  no constraints, skipping    0.0000000000000000     
  no constraints, skipping    0.0000000000000000     
  no constraints, skipping    0.0000000000000000     
  no constraints, skipping    0.0000000000000000     
  no constraints, skipping    0.0000000000000000     
  no constraints, skipping    0.0000000000000000     
  no constraints, skipping    0.0000000000000000     
  no constraints, skipping    0.0000000000000000     

                                 NWChem DFT Module
                                 -----------------


                               Molecule conformer 0




 Summary of "ao basis" -> "ao basis" (spherical)
 ------------------------------------------------------------------------------
       Tag                 Description            Shells   Functions and Types
 ---------------- ------------------------------  ------  ---------------------
 C                           6-311G                  7       13   4s3p
 H                           6-311G                  3        3   3s


      Symmetry analysis of basis
      --------------------------

        a'         45
        a"         25

  Caching 1-el integrals 

            General Information
            -------------------
          SCF calculation type: DFT
          Wavefunction type:  closed shell.
          No. of atoms     :    10
          No. of electrons :    30
           Alpha electrons :    15
            Beta electrons :    15
          Charge           :     0
          Spin multiplicity:     1
          Use of symmetry is: on ; symmetry adaption is: on 
          Maximum number of iterations: ***
          This is a Direct SCF calculation.
          AO basis - number of functions:    70
                     number of shells:    46
          Convergence on energy requested:  1.00D-06
          Convergence on density requested:  1.00D-05
          Convergence on gradient requested:  5.00D-04

              XC Information
              --------------
                         B3LYP Method XC Potential
                     Hartree-Fock (Exact) Exchange  0.200          
                        Slater Exchange Functional  0.800 local    
                    Becke 1988 Exchange Functional  0.720 non-local
              Lee-Yang-Parr Correlation Functional  0.810          
                  VWN I RPA Correlation Functional  0.190 local    

             Grid Information
             ----------------
          Grid used for XC integration:  fine      
          Radial quadrature: Mura-Knowles        
          Angular quadrature: Lebedev. 
          Tag              B.-S. Rad. Rad. Pts. Rad. Cut. Ang. Pts.
          ---              ---------- --------- --------- ---------
          C                   0.70       70          10.0       590
          H                   0.35       60          11.0       590
          Grid pruning is: on 
          Number of quadrature shells:   450
          Spatial weights used:  Erf1

          Convergence Information
          -----------------------
          Convergence aids based upon iterative change in 
          total energy or number of iterations. 
          Levelshifting, if invoked, occurs when the 
          HOMO/LUMO gap drops below (HL_TOL):  1.00D-02
          DIIS, if invoked, will attempt to extrapolate 
          using up to (NFOCK): 10 stored Fock matrices.

                    Damping( 0%)  Levelshifting(0.5)       DIIS
                  --------------- ------------------- ---------------
          dE  on:    start            ASAP                start   
          dE off:    2 iters        *** iters           *** iters 


      Screening Tolerance Information
      -------------------------------
          Density screening/tol_rho:  1.00D-10
          AO Gaussian exp screening on grid/accAOfunc:  14
          CD Gaussian exp screening on grid/accCDfunc:  20
          XC Gaussian exp screening on grid/accXCfunc:  20
          Schwarz screening/accCoul:  1.00D-08

          Performing ZORA calculations
          ----------------------------


      Superposition of Atomic Density Guess
      -------------------------------------

 Sum of atomic energies:        -153.67306699

 Read atomic ZORA corrections from ./C1C2C1C2_mol_9_conformer_0.zora_sf

 Forcing recalculation of ZORA corrections
       Generating atomic ZORA corrections
       ----------------------------------

 In dft_scf:: zora:Knucl= F

 Grid_pts file          = ./C1C2C1C2_mol_9_conformer_0.gridpts.00
 Record size in doubles =  12289        No. of grid_pts per rec  =   3070
 Max. records in memory =      4        Max. recs in file   =     13547


 Wrote atomic ZORA corrections to ./C1C2C1C2_mol_9_conformer_0.zora_sf


 Loading old vectors from job with title :

Molecule conformer 0


      Symmetry analysis of molecular orbitals - initial
      -------------------------------------------------

  Numbering of irreducible representations: 

     1 a'          2 a"      

  Orbital symmetries:

     1 a'          2 a"          3 a'          4 a'          5 a'      
     6 a"          7 a'          8 a'          9 a'         10 a"      
    11 a'         12 a"         13 a"         14 a'         15 a'      
    16 a'         17 a'         18 a'         19 a"         20 a'      
    21 a"         22 a'         23 a'         24 a"         25 a"      

   Time after variat. SCF:     79.2
   Time prior to 1st pass:     79.2

           Memory utilization after 1st SCF pass: 
           Heap Space remaining (MW):      131.02           131016820
          Stack Space remaining (MW):      131.06           131061516

   convergence    iter        energy       DeltaE   RMS-Dens  Diis-err    time
 ---------------- ----- ----------------- --------- --------- ---------  ------
 d= 0,ls=0.0,diis     1   -155.9087644067 -2.68D+02  2.46D-03  1.70D-02    81.0
 d= 0,ls=0.0,diis     2   -155.9109068790 -2.14D-03  9.23D-04  4.43D-03    83.2
 d= 0,ls=0.0,diis     3   -155.9112015272 -2.95D-04  7.36D-04  2.30D-03    85.1
 d= 0,ls=0.0,diis     4   -155.9113509258 -1.49D-04  3.50D-04  1.03D-03    86.9
 d= 0,ls=0.0,diis     5   -155.9115090287 -1.58D-04  4.71D-05  3.11D-06    89.1
 d= 0,ls=0.0,diis     6   -155.9115093846 -3.56D-07  2.03D-05  2.21D-06    90.7
 d= 0,ls=0.0,diis     7   -155.9115096813 -2.97D-07  7.21D-06  8.48D-08    92.6
(nogshift,skip_gshiftAOev,done_Fji)=( 1,F,F)


         Total DFT energy =     -155.911509681339
      One electron energy =     -429.335438594785
           Coulomb energy =      185.324204129955
    Exchange-Corr. energy =      -23.877832047955
 Nuclear repulsion energy =      111.977556831445

       Scaling correction =        0.035098954892

 Numeric. integr. density =       29.999999466687

     Total iterative time =     13.5s



                  Occupations of the irreducible representations
                  ----------------------------------------------

                     irrep           alpha         beta
                     --------     --------     --------
                     a'               10.0         10.0
                     a"                5.0          5.0


 center of mass
 --------------
 x =   0.03849330 y =   0.05223099 z =   0.00000000

 moments of inertia (a.u.)
 ------------------
         191.607539771166          -2.044080950640           0.000000000000
          -2.044080950640         261.639134809115           0.000000000000
           0.000000000000           0.000000000000         111.294325811664
 Line search: 
     step= 1.00 grad=-2.0D-02 hess= 7.1D-03 energy=   -155.911510 mode=downhill
 new step= 1.41                   predicted energy=   -155.912672
  no constraints, skipping    0.0000000000000000     
  no constraints, skipping    0.0000000000000000     
  no constraints, skipping    0.0000000000000000     
  no constraints, skipping    0.0000000000000000     
  no constraints, skipping    0.0000000000000000     
  no constraints, skipping    0.0000000000000000     
  no constraints, skipping    0.0000000000000000     
  no constraints, skipping    0.0000000000000000     

          --------
          Step   2
          --------


                         Geometry "geometry" -> "geometry"
                         ---------------------------------

 Output coordinates in angstroms (scale by  1.889725989 to convert to a.u.)

  No.       Tag          Charge          X              Y              Z
 ---- ---------------- ---------- -------------- -------------- --------------
    1 C                    6.0000    -0.03139637    -0.08386252     1.20486286
    2 C                    6.0000    -0.85536217     0.02640830     0.00000000
    3 C                    6.0000     1.00779747     0.31129223     0.00000000
    4 C                    6.0000    -0.03139637    -0.08386252    -1.20486286
    5 H                    1.0000    -0.26271318     0.66919618     1.96074386
    6 H                    1.0000     0.15012129    -1.09079186     1.59484158
    7 H                    1.0000    -1.39857166     0.97405383     0.00000000
    8 H                    1.0000     1.66800507    -0.58096489     0.00000000
    9 H                    1.0000    -0.26271318     0.66919618    -1.96074386
   10 H                    1.0000     0.15012129    -1.09079186    -1.59484158

      Atomic Mass 
      ----------- 

      C                 12.000000
      H                  1.007825


 Effective nuclear repulsion energy (a.u.)     111.4543319892

            Nuclear Dipole moment (a.u.) 
[...]
(dia2,par1)(k,t,iat1,spin)=(  1,  3, 10,  1)=(     0.33998869,     0.33998869,     0.37677192,     0.37677192) ppm
(dia2,par1)(k,t,iat1,spin)=(  2,  3, 10,  1)=(    -3.45986600,    -3.45986600,     0.44610593,     0.44610593) ppm
(dia2,par1)(k,t,iat1,spin)=(  3,  3, 10,  1)=(     2.93362566,     2.93362566,    -0.23184231,    -0.23184231) ppm

 Wrote ZORA NMR data to ./C1C2C1C2_mol_9_conformer_0.zora_nmrcs

(nogshift,skip_gshiftAOev,done_Fji)=( 1,F,T)


         Total DFT energy =     -155.932680934308
      One electron energy =     -428.983239318885
           Coulomb energy =      185.288748885345
    Exchange-Corr. energy =      -23.848290549322
 Nuclear repulsion energy =      111.533317242752

             COSMO energy =        0.076782805803

       Scaling correction =        0.035080110699

 Numeric. integr. density =       29.999997116960

     Total iterative time =     53.5s


                                   COSMO solvation results
                                   -----------------------

                 gas phase energy =      -155.926638030897
                 sol phase energy =      -155.932680934308
 (electrostatic) solvation energy =         0.006042903410 (    3.79 kcal/mol)

 center of mass
 --------------
 x =   0.02534075 y =  -0.05288137 z =   0.00000000

 moments of inertia (a.u.)
 ------------------
         164.113020280347           9.334903789508           0.000000000000
           9.334903789508         266.096365012473           0.000000000000
           0.000000000000           0.000000000000         132.943252363978

            Scalar ZORA NMR Shielding
            -------------------------


          -----------------------------------------
          Chemical Shielding Tensors (GIAO, in ppm)
          -----------------------------------------


 Read ZORA NMR data from ./C1C2C1C2_mol_9_conformer_0.zora_nmrcs

    0 giaofock schwarz done =      98.80%
    0 giaofock schwarz done =      98.94%
                                NWChem CPHF Module
                                ------------------



 solvent parameters
 solvname_short: cdcl3   
 solvname_long:  unknown                            
 dielec:       78.4000
 dielecinf:     1.7769

          ---------------
          -cosmo- solvent
          ---------------
 Cosmo: York-Karplus, doi: 10.1021/jp992097l
 dielectric constant -eps-     =  78.40
 screen = (eps-1)/(eps    )    =   0.98724
 surface charge correction     = lagrangian
 -lineq- algorithm             =   0
 -bem- low  level              =   2
 -bem- from -octahedral-
 gaussian surface charge width =   0.98000
 degree of switching           =   1.00000
 switching function tolerance  =   0.00010
 atomic radii = 
 --------------
    1  6.000  2.000
    2  6.000  2.000
    3  6.000  2.000
    4  6.000  2.000
    5  1.000  1.300
    6  1.000  1.300
    7  1.000  1.300
    8  1.000  1.300
    9  1.000  1.300
   10  1.000  1.300

 solvent accessible surface
 --------------------------

 ---------- ATOMIC COORDINATES (A.U.) ------------ VDWR(ANG.) --
     1    0.02534041   -0.05290738    2.08896385     2.000
     2   -1.95947569   -0.11190935    0.00000000     2.000
     3    2.01019341    0.00624902    0.00000000     2.000
     4    0.02534041   -0.05290738   -2.08896385     2.000
     5   -0.28157454    1.58765497    3.30018923     1.300
     6    0.33209589   -1.69369754    3.29994080     1.300
     7   -3.31829900    1.44865960    0.00000000     1.300
     8    3.36887728   -1.55446251    0.00000000     1.300
     9   -0.28157454    1.58765497   -3.30018923     1.300
    10    0.33209589   -1.69369754   -3.29994080     1.300
 number of segments per atom =         32
 number of   points per atom =         32
 atom (   nspa,  nppa )
 ----------------------
    1 (     18,     0 )       0
    2 (     20,     0 )       0
    3 (     20,     0 )       0
    4 (     18,     0 )       0
    5 (     15,     0 )       0
    6 (     15,     0 )       0
    7 (     12,     0 )       0
    8 (     12,     0 )       0
    9 (     15,     0 )       0
   10 (     15,     0 )       0
 number of -cosmo- surface points =      160
 molecular surface =     93.078 angstrom**2
 molecular volume  =     53.266 angstrom**3
 G(cav/disp)       =      1.325 kcal/mol
 ...... end of -cosmo- initialization ......


  scftype          =     RHF 
  nclosed          =       15
  nopen            =        0
  variables        =      825
  # of vectors     =        3
  tolerance        = 0.10D-03
  level shift      = 0.00D+00
  max iterations   =       50
  max subspace     =       30

 SCF residual:    6.2589289267538327E-007


Iterative solution of linear equations
  No. of variables      825
  No. of equations        3
  Maximum subspace       30
        Iterations       50
       Convergence  1.0D-04
        Start time   1739.0


   iter   nsub   residual    time
   ----  ------  --------  ---------
     1      3    8.65D-01    1741.3
     2      6    4.54D-02    1743.4
     3      9    2.07D-03    1745.7
     4     12    4.01D-04    1748.0
     5     15    4.90D-05    1750.3

 Wrote CPHF data to ./C1C2C1C2_mol_9_conformer_0.shieldcphf

 Calc. par tensor-> zora
      Atom:    1  H 
        Diamagnetic
     24.4432     -2.3134     -0.9068
     -2.3134     31.4834      7.7936
     -0.9068      7.7936     31.7681

        Paramagnetic
      1.9328      3.3709      1.9693
      3.3709     -4.9068     -5.4034
      1.9693     -5.4034     -4.1231

        Total Shielding Tensor
     26.3760      1.0575      1.0624
      1.0575     26.5767      2.3902
      1.0624      2.3902     27.6450

           isotropic =      26.8659
          anisotropy =       4.9253

          Principal Components and Axis System
                 1           2           3
               30.1494     25.8068     24.6415

      1         0.3677      0.9216     -0.1244
      2         0.5898     -0.1277      0.7974
      3         0.7189     -0.3666     -0.5905



      Atom:    2  H 
        Diamagnetic
     24.4428     -2.3128      0.9057
     -2.3128     31.4859     -7.7936
      0.9057     -7.7936     31.7659

        Paramagnetic
      1.9328      3.3705     -1.9687
      3.3705     -4.9083      5.4031
     -1.9687      5.4031     -4.1212

        Total Shielding Tensor
     26.3756      1.0577     -1.0630
      1.0577     26.5776     -2.3905
     -1.0630     -2.3905     27.6447

           isotropic =      26.8660
          anisotropy =       4.9263

          Principal Components and Axis System
                 1           2           3
               30.1502     25.8061     24.6417

      1        -0.3678      0.9216     -0.1242
      2        -0.5899     -0.1279      0.7973
      3         0.7189      0.3665      0.5907



      Atom:    3  H 
        Diamagnetic
     34.5590     -8.4774      0.0035
     -8.4774     30.8191     -0.0012
      0.0035     -0.0012     25.9499

        Paramagnetic
     -7.9224      7.6391     -0.0082
      7.6391     -1.8292      0.0060
     -0.0082      0.0060      1.7109

        Total Shielding Tensor
     26.6367     -0.8384     -0.0047
     -0.8384     28.9899      0.0048
     -0.0047      0.0048     27.6608

           isotropic =      27.7625
          anisotropy =       2.2434

          Principal Components and Axis System
                 1           2           3
               29.2581     27.6608     26.3685

      1        -0.3046     -0.0011      0.9525
      2         0.9525     -0.0043      0.3046
      3         0.0037      1.0000      0.0024



      Atom:    4  H 
        Diamagnetic
     34.5585     -8.4772     -0.0034
     -8.4772     30.8201      0.0013
     -0.0034      0.0013     25.9509

        Paramagnetic
     -7.9195      7.6369      0.0085
      7.6369     -1.8291     -0.0058
      0.0085     -0.0058      1.7112

        Total Shielding Tensor
     26.6390     -0.8404      0.0052
     -0.8404     28.9910     -0.0044
      0.0052     -0.0044     27.6621

           isotropic =      27.7640
          anisotropy =       2.2446

          Principal Components and Axis System
                 1           2           3
               29.2604     27.6621     26.3696

      1        -0.3053      0.0015      0.9523
      2         0.9523      0.0043      0.3053
      3        -0.0036      1.0000     -0.0027



      Atom:    5  H 
        Diamagnetic
     24.4274     -2.3134      0.9069
     -2.3134     31.4669     -7.7958
      0.9069     -7.7958     31.7582

        Paramagnetic
      1.9341      3.3768     -1.9673
      3.3768     -4.9124      5.4008
     -1.9673      5.4008     -4.1197

        Total Shielding Tensor
     26.3615      1.0634     -1.0604
      1.0634     26.5546     -2.3950
     -1.0604     -2.3950     27.6385

           isotropic =      26.8515
          anisotropy =       4.9356

          Principal Components and Axis System
                 1           2           3
               30.1419     25.7937     24.6189

      1        -0.3676      0.9209     -0.1295
      2        -0.5893     -0.1229      0.7985
      3         0.7195      0.3699      0.5879



      Atom:    6  H 
        Diamagnetic
     24.4266     -2.3129     -0.9058
     -2.3129     31.4691      7.7956
     -0.9058      7.7956     31.7554

        Paramagnetic
      1.9340      3.3766      1.9668
      3.3766     -4.9136     -5.3999
      1.9668     -5.3999     -4.1183

        Total Shielding Tensor
     26.3606      1.0637      1.0610
      1.0637     26.5555      2.3958
      1.0610      2.3958     27.6371

           isotropic =      26.8511
          anisotropy =       4.9371

          Principal Components and Axis System
                 1           2           3
               30.1424     25.7924     24.6183

      1         0.3676      0.9210     -0.1292
      2         0.5894     -0.1233      0.7983
      3         0.7193     -0.3696     -0.5882




 Task  times  cpu:       77.3s     wall:       78.8s


                                NWChem Input Module
                                -------------------


 Summary of allocated global arrays
-----------------------------------
  array 0 => double precision sf 1(70,70),  handle: -987 
  array 1 => double precision sf 1(70,70),  handle: -986 
  array 2 => double precision sf 1(70,70),  handle: -985 
  array 3 => double precision sf 1(70,70),  handle: -984 
  array 4 => double precision sf 1(70,70),  handle: -983 
  array 5 => double precision sf 1(70,70),  handle: -982 
  array 6 => double precision sf 1(70,70),  handle: -981 
  array 7 => double precision sf 1(70,70),  handle: -980 
  array 8 => double precision sf 1(70,70),  handle: -979 
  array 9 => double precision sf 1(70,70),  handle: -978 
  array 10 => double precision sf 1(70,70),  handle: -977 
  array 11 => double precision sf 1(70,70),  handle: -976 
  array 12 => double precision sf 1(70,70),  handle: -975 
  array 13 => double precision sf 1(70,70),  handle: -974 
  array 14 => double precision sf 1(70,70),  handle: -973 
  array 15 => double precision sf 1(70,70),  handle: -972 
  array 16 => double precision sf 1(70,70),  handle: -971 
  array 17 => double precision sf 1(70,70),  handle: -970 
  array 18 => double precision sf 1(70,70),  handle: -969 
  array 19 => double precision sf 1(70,70),  handle: -968 
  array 20 => double precision sf 1(70,70),  handle: -967 
  array 21 => double precision sf 1(70,70),  handle: -966 
  array 22 => double precision sf 1(70,70),  handle: -965 
  array 23 => double precision sf 1(70,70),  handle: -964 
  array 24 => double precision sf 1(70,70),  handle: -963 
  array 25 => double precision sf 1(70,70),  handle: -962 
  array 26 => double precision sf 1(70,70),  handle: -961 
  array 27 => double precision sf 1(70,70),  handle: -960 
  array 28 => double precision sf 1(70,70),  handle: -959 
  array 29 => double precision sf 1(70,70),  handle: -958 
  array 30 => double precision sf 1(70,70),  handle: -957 
  array 31 => double precision sf 1(70,70),  handle: -956 
  array 32 => double precision sf 1(70,70),  handle: -955 
  array 33 => double precision sf 1(70,70),  handle: -954 
  array 34 => double precision sf 1(70,70),  handle: -953 
  array 35 => double precision sf 1(70,70),  handle: -952 
  array 36 => double precision sf 1(70,70),  handle: -951 
  array 37 => double precision sf 1(70,70),  handle: -950 
  array 38 => double precision sf 1(70,70),  handle: -949 
  array 39 => double precision sf 1(70,70),  handle: -948 
  array 40 => double precision sf 1(70,70),  handle: -947 
  array 41 => double precision sf 1(70,70),  handle: -946 
  array 42 => double precision sf 1(70,70),  handle: -945 
  array 43 => double precision sf 1(70,70),  handle: -944 
  array 44 => double precision sf 1(70,70),  handle: -943 
  array 45 => double precision sf 1(70,70),  handle: -942 
  array 46 => double precision sf 1(70,70),  handle: -941 
  array 47 => double precision sf 1(70,70),  handle: -940 
  array 48 => double precision sf 1(70,70),  handle: -939 
  array 49 => double precision sf 1(70,70),  handle: -938 
  array 50 => double precision sf 1(70,70),  handle: -937 
  array 51 => double precision sf 1(70,70),  handle: -936 
  array 52 => double precision sf 1(70,70),  handle: -935 
  array 53 => double precision sf 1(70,70),  handle: -934 
  array 54 => double precision sf 1(70,70),  handle: -933 
  array 55 => double precision sf 1(70,70),  handle: -932 
  array 56 => double precision sf 1(70,70),  handle: -931 
  array 57 => double precision sf 1(70,70),  handle: -930 
  array 58 => double precision sf 1(70,70),  handle: -929 
  array 59 => double precision sf 1(70,70),  handle: -928 
  array 60 => double precision sf 1(70,70),  handle: -927 
  array 61 => double precision sf 1(70,70),  handle: -926 
  array 62 => double precision sf 1(70,70),  handle: -925 
  array 63 => double precision sf 1(70,70),  handle: -924 
  array 64 => double precision sf 1(70,70),  handle: -923 
  array 65 => double precision sf 1(70,70),  handle: -922 
  array 66 => double precision sf 1(70,70),  handle: -921 
  array 67 => double precision sf 1(70,70),  handle: -920 
  array 68 => double precision sf 1(70,70),  handle: -919 
  array 69 => double precision sf 1(70,70),  handle: -918 
  array 70 => double precision sf 1(70,70),  handle: -917 
  array 71 => double precision sf 1(70,70),  handle: -916 
  array 72 => double precision sf 1(70,70),  handle: -915 
  array 73 => double precision sf 1(70,70),  handle: -914 
  array 74 => double precision sf 1(70,70),  handle: -913 
  array 75 => double precision sf 1(70,70),  handle: -912 
  array 76 => double precision sf 1(70,70),  handle: -911 
  array 77 => double precision sf 1(70,70),  handle: -910 
  array 78 => double precision sf 1(70,70),  handle: -909 
  array 79 => double precision sf 1(70,70),  handle: -908 
  array 80 => double precision sf 1(70,70),  handle: -907 
  array 81 => double precision sf 1(70,70),  handle: -906 
  array 82 => double precision sf 1(70,70),  handle: -905 
  array 83 => double precision sf 1(70,70),  handle: -904 
  array 84 => double precision sf 1(70,70),  handle: -903 
  array 85 => double precision sf 1(70,70),  handle: -902 
  array 86 => double precision sf 1(70,70),  handle: -901 



                         GA Statistics for process    0
                         ------------------------------

       create   destroy   get      put      acc     scatter   gather  read&inc
calls: 1.71e+04 1.64e+04 3.13e+05 9.16e+04 9.94e+04   72        0     1.77e+04 
number of processes/call 0.00e+00 0.00e+00 0.00e+00 0.00e+00 0.00e+00
bytes total:             6.42e+08 9.39e+07 4.93e+08 3.36e+02 0.00e+00 1.42e+05
bytes remote:            5.72e+08 7.56e+07 4.56e+08 -1.68e+02 0.00e+00 0.00e+00
Max memory consumed for GA by this process: 629248 bytes

MA_summarize_allocated_blocks: starting scan ...
MA_summarize_allocated_blocks: scan completed: 0 heap blocks, 0 stack blocks
MA usage statistics:

	allocation statistics:
					      heap	     stack
					      ----	     -----
	current number of blocks	         0	         0
	maximum number of blocks	        66	        59
	current total bytes		         0	         0
	maximum total bytes		   2005560	  27319976
	maximum total K-bytes		      2006	     27320
	maximum total M-bytes		         3	        28


                                     CITATION
                                     --------
                Please cite the following reference when publishing
                           results obtained with NWChem:

          E. Apr, E. J. Bylaska, W. A. de Jong, N. Govind, K. Kowalski,
       T. P. Straatsma, M. Valiev, H. J. J. van Dam, Y. Alexeev, J. Anchell,
       V. Anisimov, F. W. Aquino, R. Atta-Fynn, J. Autschbach, N. P. Bauman,
     J. C. Becca, D. E. Bernholdt, K. Bhaskaran-Nair, S. Bogatko, P. Borowski,
        J. Boschen, J. Brabec, A. Bruner, E. Caut, Y. Chen, G. N. Chuev,
      C. J. Cramer, J. Daily, M. J. O. Deegan, T. H. Dunning Jr., M. Dupuis,
   K. G. Dyall, G. I. Fann, S. A. Fischer, A. Fonari, H. Frchtl, L. Gagliardi,
      J. Garza, N. Gawande, S. Ghosh, K. Glaesemann, A. W. Gtz, J. Hammond,
       V. Helms, E. D. Hermes, K. Hirao, S. Hirata, M. Jacquelin, L. Jensen,
   B. G. Johnson, H. Jnsson, R. A. Kendall, M. Klemm, R. Kobayashi, V. Konkov,
      S. Krishnamoorthy, M. Krishnan, Z. Lin, R. D. Lins, R. J. Littlefield,
      A. J. Logsdail, K. Lopata, W. Ma, A. V. Marenich, J. Martin del Campo,
   D. Mejia-Rodriguez, J. E. Moore, J. M. Mullin, T. Nakajima, D. R. Nascimento,
    J. A. Nichols, P. J. Nichols, J. Nieplocha, A. Otero-de-la-Roza, B. Palmer,
    A. Panyala, T. Pirojsirikul, B. Peng, R. Peverati, J. Pittner, L. Pollack,
   R. M. Richard, P. Sadayappan, G. C. Schatz, W. A. Shelton, D. W. Silverstein,
   D. M. A. Smith, T. A. Soares, D. Song, M. Swart, H. L. Taylor, G. S. Thomas,
            V. Tipparaju, D. G. Truhlar, K. Tsemekhman, T. Van Voorhis,
     . Vzquez-Mayagoitia, P. Verma, O. Villa, A. Vishnu, K. D. Vogiatzis,
        D. Wang, J. H. Weare, M. J. Williamson, T. L. Windus, K. Woliski,
        A. T. Wong, Q. Wu, C. Yang, Q. Yu, M. Zacharias, Z. Zhang, Y. Zhao,
                                and R. J. Harrison
                        "NWChem: Past, present, and future
                         J. Chem. Phys. 152, 184102 (2020)
                               doi:10.1063/5.0004997

                                      AUTHORS
                                      -------
     E. Apra, E. J. Bylaska, N. Govind, K. Kowalski, M. Valiev, W. A. de Jong,
      T. P. Straatsma, H. J. J. van Dam, D. Wang, T. L. Windus, N. P. Bauman,
       A. Panyala, J. Hammond, J. Autschbach, K. Bhaskaran-Nair, J. Brabec,
    K. Lopata, S. A. Fischer, S. Krishnamoorthy, M. Jacquelin, W. Ma, M. Klemm,
       O. Villa, Y. Chen, V. Anisimov, F. Aquino, S. Hirata, M. T. Hackler,
           Eric Hermes, L. Jensen, J. E. Moore, J. C. Becca, V. Konjkov,
            D. Mejia-Rodriguez, T. Risthaus, M. Malagoli, A. Marenich,
   A. Otero-de-la-Roza, J. Mullin, P. Nichols, R. Peverati, J. Pittner, Y. Zhao,
        P.-D. Fan, A. Fonari, M. J. Williamson, R. J. Harrison, J. R. Rehr,
      M. Dupuis, D. Silverstein, D. M. A. Smith, J. Nieplocha, V. Tipparaju,
      M. Krishnan, B. E. Van Kuiken, A. Vazquez-Mayagoitia, M. Swart, Q. Wu,
   T. Van Voorhis, A. A. Auer, M. Nooijen, L. D. Crosby, E. Brown, G. Cisneros,
     G. I. Fann, H. Fruchtl, J. Garza, K. Hirao, R. A. Kendall, J. A. Nichols,
       K. Tsemekhman, K. Wolinski, J. Anchell, D. E. Bernholdt, P. Borowski,
       T. Clark, D. Clerc, H. Dachsel, M. J. O. Deegan, K. Dyall, D. Elwood,
      E. Glendening, M. Gutowski, A. C. Hess, J. Jaffe, B. G. Johnson, J. Ju,
        R. Kobayashi, R. Kutteh, Z. Lin, R. Littlefield, X. Long, B. Meng,
      T. Nakajima, S. Niu, L. Pollack, M. Rosing, K. Glaesemann, G. Sandrone,
      M. Stave, H. Taylor, G. Thomas, J. H. van Lenthe, A. T. Wong, Z. Zhang.

 Total times  cpu:     1682.1s     wall:     1750.6s
