 argument  1 = C1C2C1C2_mol_2_conformer_0.nw



============================== echo of input deck ==============================
start

title "Molecule conformer 0"

memory total 4000 mb

echo
geometry units angstroms
   C     -1.2477    -0.1467     0.2746
   C      0.0051     0.6982     0.3275
   C     -0.0069    -0.6341    -0.4388
   C      1.2558    -0.1465     0.2351
   H     -2.0462     0.2438    -0.3917
   H     -1.4642    -0.6880     1.2190
   H     -0.0066     1.5290    -0.4125
   H     -0.0241    -0.4120    -1.5289
   H      2.0327     0.2441    -0.4562
   H      1.5020    -0.6879     1.1721
end


basis spherical
* library 6-311G
end

driver
  maxiter 500
  xyz final
end

relativistic
  zora on
  zora:cutoff_NMR 1d-8
  zora:cutoff 1d-30
end

dft
  direct
  grid fine
  xc B3LYP
  mult 1
  maxiter 1500
  noprint "final vectors analysis" multipole
end

task dft optimize

task dft freq

property
  shielding 6 5 6 7 8 9 10
end

cosmo
   solvent cdcl3
end

task dft property
================================================================================


                                         
                                         


             Northwest Computational Chemistry Package (NWChem) 7.0.2
             --------------------------------------------------------


                    Environmental Molecular Sciences Laboratory
                       Pacific Northwest National Laboratory
                                Richland, WA 99352

                              Copyright (c) 1994-2020
                       Pacific Northwest National Laboratory
                            Battelle Memorial Institute

             NWChem is an open-source computational chemistry package
                        distributed under the terms of the
                      Educational Community License (ECL) 2.0
             A copy of the license is included with this distribution
                              in the LICENSE.TXT file

                                  ACKNOWLEDGMENT
                                  --------------

            This software and its documentation were developed at the
            EMSL at Pacific Northwest National Laboratory, a multiprogram
            national laboratory, operated for the U.S. Department of Energy
            by Battelle under Contract Number DE-AC05-76RL01830. Support
            for this work was provided by the Department of Energy Office
            of Biological and Environmental Research, Office of Basic
            Energy Sciences, and the Office of Advanced Scientific Computing.


           Job information
           ---------------

    hostname        = ponder
    program         = nwchem
    date            = Sat Aug  3 13:58:08 2024

    compiled        = Sat_Apr_09_17:12:10_2022
    source          = /build/nwchem-f1f4gx/nwchem-7.0.2/build-openmpi
    nwchem branch   = 7.0.2
    nwchem revision = N/A
    ga revision     = 5.8.1
    use scalapack   = T
    input           = C1C2C1C2_mol_2_conformer_0.nw
    prefix          = C1C2C1C2_mol_2_conformer_0.
    data base       = ./C1C2C1C2_mol_2_conformer_0.db
    status          = startup
    nproc           =       40
    time left       =     -1s



           Memory information
           ------------------

    heap     =  131071994 doubles =   1000.0 Mbytes
    stack    =  131071999 doubles =   1000.0 Mbytes
    global   =  262144000 doubles =   2000.0 Mbytes (distinct from heap & stack)
    total    =  524287993 doubles =   4000.0 Mbytes
    verify   = yes
    hardfail = no 


           Directory information
           ---------------------

  0 permanent = .
  0 scratch   = .




                                NWChem Input Module
                                -------------------


                               Molecule conformer 0
                               --------------------

 Scaling coordinates for geometry "geometry" by  1.889725989
 (inverse scale =  0.529177249)

 C2V symmetry detected

          ------
          auto-z
          ------
  no constraints, skipping    0.0000000000000000     
  no constraints, skipping    0.0000000000000000     


                             Geometry "geometry" -> ""
                             -------------------------

 Output coordinates in angstroms (scale by  1.889725989 to convert to a.u.)

  No.       Tag          Charge          X              Y              Z
 ---- ---------------- ---------- -------------- -------------- --------------
    1 C                    6.0000     0.00000000    -1.25190580    -0.21742438
    2 C                    6.0000     0.76850227     0.00000000     0.14083610
    3 C                    6.0000    -0.76850227     0.00000000     0.14083610
    4 C                    6.0000     0.00000000     1.25190580    -0.21742438
    5 H                    1.0000     0.00000000    -2.03970497     0.56578401
    6 H                    1.0000     0.00000000    -1.48328538    -1.30287212
    7 H                    1.0000     1.11961335     0.00000000     1.19661776
    8 H                    1.0000    -1.11961335     0.00000000     1.19661776
    9 H                    1.0000     0.00000000     2.03970497     0.56578401
   10 H                    1.0000     0.00000000     1.48328538    -1.30287212

      Atomic Mass 
      ----------- 

      C                 12.000000
      H                  1.007825


 Effective nuclear repulsion energy (a.u.)     114.6814972326

            Nuclear Dipole moment (a.u.) 
            ----------------------------
        X                 Y               Z
 ---------------- ---------------- ----------------
     0.0000000000     0.0000000000     0.0000000000

      Symmetry information
      --------------------

 Group name             C2v       
 Group number             16
 Group order               4
 No. of unique centers     5

      Symmetry unique atoms

     1    2    5    6    7



                                Z-matrix (autoz)
                                -------- 

 Units are Angstrom for bonds and degrees for angles

      Type          Name      I     J     K     L     M      Value
      ----------- --------  ----- ----- ----- ----- ----- ----------
    1 Stretch                  1     2                       1.51202
    2 Stretch                  1     3                       1.51202
    3 Stretch                  1     5                       1.11087
    4 Stretch                  1     6                       1.10983
    5 Stretch                  2     3                       1.53700
    6 Stretch                  2     4                       1.51202
    7 Stretch                  2     7                       1.11263
    8 Stretch                  3     4                       1.51202
    9 Stretch                  3     8                       1.11263
   10 Stretch                  4     9                       1.11087
   11 Stretch                  4    10                       1.10983
   12 Bend                     1     2     3                59.45194
   13 Bend                     1     2     4               111.78098
   14 Bend                     1     2     7               112.65770
   15 Bend                     1     3     2                59.45194
   16 Bend                     1     3     4               111.78098
   17 Bend                     1     3     8               112.65770
   18 Bend                     2     1     3                61.09611
   19 Bend                     2     1     5               114.84199
   20 Bend                     2     1     6               113.85041
   21 Bend                     2     3     4                59.45194
   22 Bend                     2     3     8               108.39508
   23 Bend                     2     4     3                61.09611
   24 Bend                     2     4     9               114.84199
   25 Bend                     2     4    10               113.85041
   26 Bend                     3     1     5               114.84199
   27 Bend                     3     1     6               113.85041
   28 Bend                     3     2     4                59.45194
   29 Bend                     3     2     7               108.39508
   30 Bend                     3     4     9               114.84199
   31 Bend                     3     4    10               113.85041
   32 Bend                     4     2     7               112.65770
   33 Bend                     4     3     8               112.65770
   34 Bend                     5     1     6               122.79922
   35 Bend                     9     4    10               122.79922
   36 Torsion                  1     2     3     4        -148.06071
   37 Torsion                  1     2     3     8         105.96964
   38 Torsion                  1     2     4     3          29.38133
   39 Torsion                  1     2     4     9         135.23755
   40 Torsion                  1     2     4    10         -75.74327
   41 Torsion                  1     3     2     4         148.06071
   42 Torsion                  1     3     2     7        -105.96964
   43 Torsion                  1     3     4     2         -29.38133
   44 Torsion                  1     3     4     9        -135.23755
   45 Torsion                  1     3     4    10          75.74327
   46 Torsion                  2     1     3     4          29.38133
   47 Torsion                  2     1     3     8         -98.66792
   48 Torsion                  2     3     1     5         105.85622
   49 Torsion                  2     3     1     6        -105.12459
   50 Torsion                  2     3     4     9        -105.85622
   51 Torsion                  2     3     4    10         105.12459
   52 Torsion                  2     4     3     8          98.66792
   53 Torsion                  3     1     2     4         -29.38133
   54 Torsion                  3     1     2     7          98.66792
   55 Torsion                  3     2     1     5        -105.85622
   56 Torsion                  3     2     1     6         105.12459
   57 Torsion                  3     2     4     9         105.85622
   58 Torsion                  3     2     4    10        -105.12459
   59 Torsion                  3     4     2     7         -98.66792
   60 Torsion                  4     2     1     5        -135.23755
   61 Torsion                  4     2     1     6          75.74327
   62 Torsion                  4     2     3     8        -105.96964
   63 Torsion                  4     3     1     5         135.23755
   64 Torsion                  4     3     1     6         -75.74327
   65 Torsion                  4     3     2     7         105.96964
   66 Torsion                  5     1     2     7          -7.18830
   67 Torsion                  5     1     3     8           7.18830
   68 Torsion                  6     1     2     7        -156.20749
   69 Torsion                  6     1     3     8         156.20749
   70 Torsion                  7     2     3     8           0.00000
   71 Torsion                  7     2     4     9           7.18830
   72 Torsion                  7     2     4    10         156.20749
   73 Torsion                  8     3     4     9          -7.18830
   74 Torsion                  8     3     4    10        -156.20749


            XYZ format geometry
            -------------------
    10
 geometry
 C                     0.00000000    -1.25190580    -0.21742438
 C                     0.76850227     0.00000000     0.14083610
 C                    -0.76850227     0.00000000     0.14083610
 C                     0.00000000     1.25190580    -0.21742438
 H                     0.00000000    -2.03970497     0.56578401
 H                     0.00000000    -1.48328538    -1.30287212
 H                     1.11961335     0.00000000     1.19661776
 H                    -1.11961335     0.00000000     1.19661776
 H                     0.00000000     2.03970497     0.56578401
 H                     0.00000000     1.48328538    -1.30287212

 ==============================================================================
                                internuclear distances
 ------------------------------------------------------------------------------
       center one      |      center two      | atomic units |  angstroms
 ------------------------------------------------------------------------------
    2 C                |   1 C                |     2.85731  |     1.51202
    3 C                |   1 C                |     2.85731  |     1.51202
    3 C                |   2 C                |     2.90452  |     1.53700
    4 C                |   2 C                |     2.85731  |     1.51202
    4 C                |   3 C                |     2.85731  |     1.51202
    5 H                |   1 C                |     2.09925  |     1.11087
    6 H                |   1 C                |     2.09728  |     1.10983
    7 H                |   2 C                |     2.10257  |     1.11263
    8 H                |   3 C                |     2.10257  |     1.11263
    9 H                |   4 C                |     2.09925  |     1.11087
   10 H                |   4 C                |     2.09728  |     1.10983
 ------------------------------------------------------------------------------
                         number of included internuclear distances:         11
 ==============================================================================



 ==============================================================================
                                 internuclear angles
 ------------------------------------------------------------------------------
        center 1       |       center 2       |       center 3       |  degrees
 ------------------------------------------------------------------------------
    2 C                |   1 C                |   3 C                |    61.10
    2 C                |   1 C                |   5 H                |   114.84
    2 C                |   1 C                |   6 H                |   113.85
    3 C                |   1 C                |   5 H                |   114.84
    3 C                |   1 C                |   6 H                |   113.85
    5 H                |   1 C                |   6 H                |   122.80
    2 C                |   1 C                |   3 C                |    61.10
    1 C                |   2 C                |   4 C                |   111.78
    1 C                |   2 C                |   7 H                |   112.66
    2 C                |   4 C                |   3 C                |    61.10
    3 C                |   2 C                |   7 H                |   108.40
    4 C                |   2 C                |   7 H                |   112.66
    3 C                |   1 C                |   2 C                |    61.10
    1 C                |   3 C                |   4 C                |   111.78
    1 C                |   3 C                |   8 H                |   112.66
    3 C                |   4 C                |   2 C                |    61.10
    2 C                |   3 C                |   8 H                |   108.40
    4 C                |   3 C                |   8 H                |   112.66
    2 C                |   4 C                |   3 C                |    61.10
    2 C                |   4 C                |   9 H                |   114.84
    2 C                |   4 C                |  10 H                |   113.85
    3 C                |   4 C                |   9 H                |   114.84
    3 C                |   4 C                |  10 H                |   113.85
    9 H                |   4 C                |  10 H                |   122.80
 ------------------------------------------------------------------------------
                            number of included internuclear angles:         24
 ==============================================================================





 Summary of "ao basis" -> "" (spherical)
 ------------------------------------------------------------------------------
       Tag                 Description            Shells   Functions and Types
 ---------------- ------------------------------  ------  ---------------------
 *                           6-311G                   on all atoms 




                           NWChem Geometry Optimization
                           ----------------------------




                               Molecule conformer 0


  no constraints, skipping    0.0000000000000000     
 maximum gradient threshold         (gmax) =   0.000450
 rms gradient threshold             (grms) =   0.000300
 maximum cartesian step threshold   (xmax) =   0.001800
 rms cartesian step threshold       (xrms) =   0.001200
 fixed trust radius                (trust) =   0.300000
 maximum step size to saddle      (sadstp) =   0.100000
 energy precision                  (eprec) =   5.0D-06
 maximum number of steps          (nptopt) =  500
 initial hessian option           (inhess) =    0
 line search option               (linopt) =    1
 hessian update option            (modupd) =    1
 saddle point option              (modsad) =    0
 initial eigen-mode to follow     (moddir) =    0
 initial variable to follow       (vardir) =    0
 follow first negative mode     (firstneg) =    T
 apply conjugacy                    (opcg) =    F
 source of zmatrix                         =   autoz   


          -------------------
          Energy Minimization
          -------------------


 Names of Z-matrix variables 
    1              2              3              4              5         
    6              7              8              9             10         
   11             12             13             14             15         
   16             17             18             19             20         
   21             22             23             24             25         
   26             27             28             29             30         
   31             32             33             34             35         
   36             37             38             39             40         
   41             42             43             44             45         
   46             47             48             49             50         
   51             52             53             54             55         
   56             57             58             59             60         
   61             62             63             64             65         
   66             67             68             69             70         
   71             72             73             74         

 Variables with the same non-blank name are constrained to be equal


 Using diagonal initial Hessian 
 Scaling for Hessian diagonals: bonds = 1.00  angles = 0.25  torsions = 0.10

          --------
          Step   0
          --------


                         Geometry "geometry" -> "geometry"
                         ---------------------------------

 Output coordinates in angstroms (scale by  1.889725989 to convert to a.u.)

  No.       Tag          Charge          X              Y              Z
 ---- ---------------- ---------- -------------- -------------- --------------
    1 C                    6.0000     0.00000000    -1.25190580    -0.21742438
    2 C                    6.0000     0.76850227     0.00000000     0.14083610
    3 C                    6.0000    -0.76850227     0.00000000     0.14083610
    4 C                    6.0000     0.00000000     1.25190580    -0.21742438
    5 H                    1.0000     0.00000000    -2.03970497     0.56578401
    6 H                    1.0000     0.00000000    -1.48328538    -1.30287212
    7 H                    1.0000     1.11961335     0.00000000     1.19661776
    8 H                    1.0000    -1.11961335     0.00000000     1.19661776
    9 H                    1.0000     0.00000000     2.03970497     0.56578401
   10 H                    1.0000     0.00000000     1.48328538    -1.30287212

      Atomic Mass 
      ----------- 

      C                 12.000000
      H                  1.007825


 Effective nuclear repulsion energy (a.u.)     114.6814972326

            Nuclear Dipole moment (a.u.) 
            ----------------------------
        X                 Y               Z
 ---------------- ---------------- ----------------
     0.0000000000     0.0000000000     0.0000000000

      Symmetry information
      --------------------

 Group name             C2v       
 Group number             16
 Group order               4
 No. of unique centers     5

      Symmetry unique atoms

     1    2    5    6    7


                                 NWChem DFT Module
                                 -----------------


                               Molecule conformer 0


                      Basis "ao basis" -> "ao basis" (spherical)
                      -----
  C (Carbon)
  ----------
            Exponent  Coefficients 
       -------------- ---------------------------------------------------------
  1 S  4.56324000E+03  0.001967
  1 S  6.82024000E+02  0.015231
  1 S  1.54973000E+02  0.076127
  1 S  4.44553000E+01  0.260801
  1 S  1.30290000E+01  0.616462
  1 S  1.82773000E+00  0.221006

  2 S  2.09642000E+01  0.114660
  2 S  4.80331000E+00  0.919999
  2 S  1.45933000E+00 -0.003031

  3 P  2.09642000E+01  0.040249
  3 P  4.80331000E+00  0.237594
  3 P  1.45933000E+00  0.815854

  4 S  4.83456000E-01  1.000000

  5 P  4.83456000E-01  1.000000

  6 S  1.45585000E-01  1.000000

  7 P  1.45585000E-01  1.000000

  H (Hydrogen)
  ------------
            Exponent  Coefficients 
       -------------- ---------------------------------------------------------
  1 S  3.38650000E+01  0.025494
  1 S  5.09479000E+00  0.190373
  1 S  1.15879000E+00  0.852161

  2 S  3.25840000E-01  1.000000

  3 S  1.02741000E-01  1.000000



 Summary of "ao basis" -> "ao basis" (spherical)
 ------------------------------------------------------------------------------
       Tag                 Description            Shells   Functions and Types
 ---------------- ------------------------------  ------  ---------------------
 C                           6-311G                  7       13   4s3p
 H                           6-311G                  3        3   3s




 Summary of "ao basis" -> "ao basis" (spherical)
 ------------------------------------------------------------------------------
       Tag                 Description            Shells   Functions and Types
 ---------------- ------------------------------  ------  ---------------------
 C                           6-311G                  7       13   4s3p
 H                           6-311G                  3        3   3s


      Symmetry analysis of basis
      --------------------------

        a1         29
        a2          6
        b1         16
        b2         19

  Caching 1-el integrals 

            General Information
            -------------------
          SCF calculation type: DFT
          Wavefunction type:  closed shell.
          No. of atoms     :    10
          No. of electrons :    30
           Alpha electrons :    15
            Beta electrons :    15
          Charge           :     0
          Spin multiplicity:     1
          Use of symmetry is: on ; symmetry adaption is: on 
          Maximum number of iterations: ***
          This is a Direct SCF calculation.
          AO basis - number of functions:    70
                     number of shells:    46
          Convergence on energy requested:  1.00D-06
          Convergence on density requested:  1.00D-05
          Convergence on gradient requested:  5.00D-04

              XC Information
              --------------
                         B3LYP Method XC Potential
                     Hartree-Fock (Exact) Exchange  0.200          
                        Slater Exchange Functional  0.800 local    
                    Becke 1988 Exchange Functional  0.720 non-local
              Lee-Yang-Parr Correlation Functional  0.810          
                  VWN I RPA Correlation Functional  0.190 local    

             Grid Information
             ----------------
          Grid used for XC integration:  fine      
          Radial quadrature: Mura-Knowles        
          Angular quadrature: Lebedev. 
          Tag              B.-S. Rad. Rad. Pts. Rad. Cut. Ang. Pts.
          ---              ---------- --------- --------- ---------
          C                   0.70       70          10.0       590
          H                   0.35       60          11.0       590
          Grid pruning is: on 
          Number of quadrature shells:   320
          Spatial weights used:  Erf1

          Convergence Information
          -----------------------
          Convergence aids based upon iterative change in 
          total energy or number of iterations. 
          Levelshifting, if invoked, occurs when the 
          HOMO/LUMO gap drops below (HL_TOL):  1.00D-02
          DIIS, if invoked, will attempt to extrapolate 
          using up to (NFOCK): 10 stored Fock matrices.

                    Damping( 0%)  Levelshifting(0.5)       DIIS
                  --------------- ------------------- ---------------
          dE  on:    start            ASAP                start   
          dE off:    2 iters        *** iters           *** iters 


      Screening Tolerance Information
      -------------------------------
          Density screening/tol_rho:  1.00D-10
          AO Gaussian exp screening on grid/accAOfunc:  14
          CD Gaussian exp screening on grid/accCDfunc:  20
          XC Gaussian exp screening on grid/accXCfunc:  20
          Schwarz screening/accCoul:  1.00D-08

          Performing ZORA calculations
          ----------------------------


      Superposition of Atomic Density Guess
      -------------------------------------

 Sum of atomic energies:        -153.67306699

 Read atomic ZORA corrections from ./C1C2C1C2_mol_2_conformer_0.zora_sf

 dft_zora_read: failed to open./C1C2C1C2_mol_2_conformer_0.zora_sf
 Forcing recalculation of ZORA corrections
       Generating atomic ZORA corrections
       ----------------------------------

 In dft_scf:: zora:Knucl= F

 Grid_pts file          = ./C1C2C1C2_mol_2_conformer_0.gridpts.00
 Record size in doubles =  12289        No. of grid_pts per rec  =   3070
 Max. records in memory =      3        Max. recs in file   =     13588

 Grid integrated density:      29.999985322579
 Requested integration accuracy:   0.10E-06

 Wrote atomic ZORA corrections to ./C1C2C1C2_mol_2_conformer_0.zora_sf


      Superposition of Atomic Density Guess
      -------------------------------------

 Sum of atomic energies:        -153.67306699

      Non-variational initial energy
      ------------------------------

 Total energy =    -156.684152
 1-e energy   =    -431.538844
 2-e energy   =     160.173194
 HOMO         =      -0.249836
 LUMO         =       0.040408


      Symmetry analysis of molecular orbitals - initial
      -------------------------------------------------

  Numbering of irreducible representations: 

     1 a1          2 a2          3 b1          4 b2      

  Orbital symmetries:

     1 a1          2 b2          3 a1          4 b1          5 a1      
     6 b2          7 b1          8 a1          9 a1         10 b2      
    11 a1         12 b2         13 a2         14 b1         15 a1      
    16 b1         17 a1         18 a1         19 b2         20 b1      
    21 a1         22 b2         23 a2         24 b1         25 a1      

   Time after variat. SCF:      4.8
   Time prior to 1st pass:      4.8
 Grid integrated density:      29.999991394809
 Requested integration accuracy:   0.10E-06

           Memory utilization after 1st SCF pass: 
           Heap Space remaining (MW):      131.03           131029058
          Stack Space remaining (MW):      131.06           131061516

   convergence    iter        energy       DeltaE   RMS-Dens  Diis-err    time
 ---------------- ----- ----------------- --------- --------- ---------  ------
 d= 0,ls=0.0,diis     1   -155.9267097770 -2.71D+02  1.44D-02  5.78D-01     6.8
 Grid integrated density:      29.999992464726
 Requested integration accuracy:   0.10E-06
 d= 0,ls=0.0,diis     2   -155.9699143784 -4.32D-02  8.15D-03  6.91D-02     8.8
 Grid integrated density:      29.999992553713
 Requested integration accuracy:   0.10E-06
 d= 0,ls=0.0,diis     3   -155.9733803635 -3.47D-03  2.21D-03  4.34D-02    10.7
 Grid integrated density:      29.999992586256
 Requested integration accuracy:   0.10E-06
 d= 0,ls=0.0,diis     4   -155.9788451942 -5.46D-03  3.99D-04  4.07D-04    12.4
 Grid integrated density:      29.999992609588
 Requested integration accuracy:   0.10E-06
 d= 0,ls=0.0,diis     5   -155.9788862879 -4.11D-05  1.61D-04  7.44D-05    14.7
 Grid integrated density:      29.999992604520
 Requested integration accuracy:   0.10E-06
  Resetting Diis
 d= 0,ls=0.0,diis     6   -155.9788962524 -9.96D-06  4.71D-05  1.37D-06    16.5
 Grid integrated density:      29.999992603898
 Requested integration accuracy:   0.10E-06
 d= 0,ls=0.0,diis     7   -155.9788964728 -2.20D-07  4.37D-06  1.49D-08    18.0
(nogshift,skip_gshiftAOev,done_Fji)=( 1,F,F)


         Total DFT energy =     -155.978896472830
      One electron energy =     -434.794750683411
           Coulomb energy =      188.027562986299
    Exchange-Corr. energy =      -23.893206008339
 Nuclear repulsion energy =      114.681497232621

       Scaling correction =        0.035100397083

 Numeric. integr. density =       29.999992603898

     Total iterative time =     13.3s



                  Occupations of the irreducible representations
                  ----------------------------------------------

                     irrep           alpha         beta
                     --------     --------     --------
                     a1                7.0          7.0
                     a2                1.0          1.0
                     b1                3.0          3.0
                     b2                4.0          4.0


 center of mass
 --------------
 x =   0.00000000 y =  -0.00000000 z =  -0.03188302

 moments of inertia (a.u.)
 ------------------
         210.632799302414           0.000000000000           0.000000000000
           0.000000000000          90.166310063207           0.000000000000
           0.000000000000           0.000000000000         239.747063223670

            General Information
            -------------------
          SCF calculation type: DFT
          Wavefunction type:  closed shell.
          No. of atoms     :    10
          No. of electrons :    30
           Alpha electrons :    15
            Beta electrons :    15
          Charge           :     0
          Spin multiplicity:     1
          Use of symmetry is: on ; symmetry adaption is: on 
          Maximum number of iterations: ***
          This is a Direct SCF calculation.
          AO basis - number of functions:    70
                     number of shells:    46
          Convergence on energy requested:  1.00D-06
          Convergence on density requested:  1.00D-05
          Convergence on gradient requested:  5.00D-04

              XC Information
              --------------
                         B3LYP Method XC Potential
                     Hartree-Fock (Exact) Exchange  0.200          
                        Slater Exchange Functional  0.800 local    
                    Becke 1988 Exchange Functional  0.720 non-local
              Lee-Yang-Parr Correlation Functional  0.810          
                  VWN I RPA Correlation Functional  0.190 local    

             Grid Information
             ----------------
          Grid used for XC integration:  fine      
          Radial quadrature: Mura-Knowles        
          Angular quadrature: Lebedev. 
          Tag              B.-S. Rad. Rad. Pts. Rad. Cut. Ang. Pts.
          ---              ---------- --------- --------- ---------
          C                   0.70       70          10.0       590
          H                   0.35       60          11.0       590
          Grid pruning is: on 
          Number of quadrature shells:   320
          Spatial weights used:  Erf1

          Convergence Information
          -----------------------
          Convergence aids based upon iterative change in 
          total energy or number of iterations. 
          Levelshifting, if invoked, occurs when the 
          HOMO/LUMO gap drops below (HL_TOL):  1.00D-02
          DIIS, if invoked, will attempt to extrapolate 
          using up to (NFOCK): 10 stored Fock matrices.

                    Damping( 0%)  Levelshifting(0.5)       DIIS
                  --------------- ------------------- ---------------
          dE  on:    start            ASAP                start   
          dE off:    2 iters        *** iters           *** iters 


      Screening Tolerance Information
      -------------------------------
          Density screening/tol_rho:  1.00D-10
          AO Gaussian exp screening on grid/accAOfunc:  14
          CD Gaussian exp screening on grid/accCDfunc:  20
          XC Gaussian exp screening on grid/accXCfunc:  20
          Schwarz screening/accCoul:  1.00D-08



                            NWChem DFT Gradient Module
                            --------------------------


                               Molecule conformer 0



  charge          =   0.00
  wavefunction    = closed shell

  Using symmetry


                         DFT ENERGY GRADIENTS

    atom               coordinates                        gradient
                 x          y          z           x          y          z
   1 C       0.000000  -2.365759  -0.410872    0.000000  -0.026691   0.044414
   2 C       1.452259   0.000000   0.266142   -0.046468   0.000000  -0.066149
   3 C      -1.452259   0.000000   0.266142    0.046468  -0.000000  -0.066149
   4 C       0.000000   2.365759  -0.410872    0.000000   0.026691   0.044414
   5 H       0.000000  -3.854483   1.069177    0.000000  -0.009424   0.020869
   6 H       0.000000  -2.803003  -2.462071    0.000000   0.012187  -0.019856
   7 H       2.115762   0.000000   2.261280   -0.008587   0.000000   0.020722
   8 H      -2.115762   0.000000   2.261280    0.008587   0.000000   0.020722
   9 H       0.000000   3.854483   1.069177   -0.000000   0.009424   0.020869
  10 H       0.000000   2.803003  -2.462071    0.000000  -0.012187  -0.019856

                 ----------------------------------------
                 |  Time  |  1-e(secs)   |  2-e(secs)   |
                 ----------------------------------------
                 |  CPU   |       0.00   |       0.03   |
                 ----------------------------------------
                 |  WALL  |       0.00   |       0.03   |
                 ----------------------------------------
  no constraints, skipping    0.0000000000000000     

@ Step       Energy      Delta E   Gmax     Grms     Xrms     Xmax   Walltime
@ ---- ---------------- -------- -------- -------- -------- -------- --------
@    0    -155.97889647  0.0D+00  0.02140  0.00708  0.00000  0.00000     19.8
                                                                    



                                Z-matrix (autoz)
                                -------- 

 Units are Angstrom for bonds and degrees for angles

      Type          Name      I     J     K     L     M      Value     Gradient
      ----------- --------  ----- ----- ----- ----- ----- ---------- ----------
    1 Stretch                  1     2                       1.51202   -0.00495
    2 Stretch                  1     3                       1.51202   -0.00495
    3 Stretch                  1     5                       1.11087    0.02140
    4 Stretch                  1     6                       1.10983    0.01688
    5 Stretch                  2     3                       1.53700   -0.01778
    6 Stretch                  2     4                       1.51202   -0.00495
    7 Stretch                  2     7                       1.11263    0.01695
    8 Stretch                  3     4                       1.51202   -0.00495
    9 Stretch                  3     8                       1.11263    0.01695
   10 Stretch                  4     9                       1.11087    0.02140
   11 Stretch                  4    10                       1.10983    0.01688
   12 Bend                     1     2     3                59.45194    0.00490
   13 Bend                     1     2     4               111.78098    0.01173
   14 Bend                     1     2     7               112.65770   -0.00584
   15 Bend                     1     3     2                59.45194    0.00490
   16 Bend                     1     3     4               111.78098    0.01173
   17 Bend                     1     3     8               112.65770   -0.00584
   18 Bend                     2     1     3                61.09611   -0.00979
   19 Bend                     2     1     5               114.84199    0.00185
   20 Bend                     2     1     6               113.85041   -0.00154
   21 Bend                     2     3     4                59.45194    0.00490
   22 Bend                     2     3     8               108.39508   -0.00426
   23 Bend                     2     4     3                61.09611   -0.00979
   24 Bend                     2     4     9               114.84199    0.00185
   25 Bend                     2     4    10               113.85041   -0.00154
   26 Bend                     3     1     5               114.84199    0.00185
   27 Bend                     3     1     6               113.85041   -0.00154
   28 Bend                     3     2     4                59.45194    0.00490
   29 Bend                     3     2     7               108.39508   -0.00426
   30 Bend                     3     4     9               114.84199    0.00185
   31 Bend                     3     4    10               113.85041   -0.00154
   32 Bend                     4     2     7               112.65770   -0.00584
   33 Bend                     4     3     8               112.65770   -0.00584
   34 Bend                     5     1     6               122.79922    0.00277
   35 Bend                     9     4    10               122.79922    0.00277
   36 Torsion                  1     2     3     4        -148.06071   -0.00757
   37 Torsion                  1     2     3     8         105.96964   -0.00379
   38 Torsion                  1     2     4     3          29.38133   -0.00257
   39 Torsion                  1     2     4     9         135.23755   -0.00437
   40 Torsion                  1     2     4    10         -75.74327    0.00158
   41 Torsion                  1     3     2     4         148.06071    0.00757
   42 Torsion                  1     3     2     7        -105.96964    0.00379
   43 Torsion                  1     3     4     2         -29.38133    0.00257
   44 Torsion                  1     3     4     9        -135.23755    0.00437
   45 Torsion                  1     3     4    10          75.74327   -0.00158
   46 Torsion                  2     1     3     4          29.38133   -0.00257
   47 Torsion                  2     1     3     8         -98.66792    0.00040
   48 Torsion                  2     3     1     5         105.85622   -0.00180
   49 Torsion                  2     3     1     6        -105.12459    0.00415
   50 Torsion                  2     3     4     9        -105.85622    0.00180
   51 Torsion                  2     3     4    10         105.12459   -0.00415
   52 Torsion                  2     4     3     8          98.66792   -0.00040
   53 Torsion                  3     1     2     4         -29.38133    0.00257
   54 Torsion                  3     1     2     7          98.66792   -0.00040
   55 Torsion                  3     2     1     5        -105.85622    0.00180
   56 Torsion                  3     2     1     6         105.12459   -0.00415
   57 Torsion                  3     2     4     9         105.85622   -0.00180
   58 Torsion                  3     2     4    10        -105.12459    0.00415
   59 Torsion                  3     4     2     7         -98.66792    0.00040
   60 Torsion                  4     2     1     5        -135.23755    0.00437
   61 Torsion                  4     2     1     6          75.74327   -0.00158
   62 Torsion                  4     2     3     8        -105.96964    0.00379
   63 Torsion                  4     3     1     5         135.23755   -0.00437
   64 Torsion                  4     3     1     6         -75.74327    0.00158
   65 Torsion                  4     3     2     7         105.96964   -0.00379
   66 Torsion                  5     1     2     7          -7.18830    0.00140
   67 Torsion                  5     1     3     8           7.18830   -0.00140
   68 Torsion                  6     1     2     7        -156.20749   -0.00455
   69 Torsion                  6     1     3     8         156.20749    0.00455
   70 Torsion                  7     2     3     8           0.00000    0.00000
   71 Torsion                  7     2     4     9           7.18830   -0.00140
   72 Torsion                  7     2     4    10         156.20749    0.00455
   73 Torsion                  8     3     4     9          -7.18830    0.00140
   74 Torsion                  8     3     4    10        -156.20749   -0.00455

 Restricting large step in mode    7 eval= 3.6D-02 step= 4.3D-01 new= 3.0D-01
 Restricting large step in mode   12 eval= 4.3D-02 step=-3.5D-01 new=-3.0D-01
  no constraints, skipping    0.0000000000000000     
  no constraints, skipping    0.0000000000000000     
  no constraints, skipping    0.0000000000000000     
  no constraints, skipping    0.0000000000000000     
  no constraints, skipping    0.0000000000000000     
  no constraints, skipping    0.0000000000000000     
  no constraints, skipping    0.0000000000000000     
  no constraints, skipping    0.0000000000000000     

                                 NWChem DFT Module
                                 -----------------


                               Molecule conformer 0




 Summary of "ao basis" -> "ao basis" (spherical)
 ------------------------------------------------------------------------------
       Tag                 Description            Shells   Functions and Types
 ---------------- ------------------------------  ------  ---------------------
 C                           6-311G                  7       13   4s3p
 H                           6-311G                  3        3   3s


      Symmetry analysis of basis
      --------------------------

        a1         29
        a2          6
        b1         16
        b2         19

  Caching 1-el integrals 

            General Information
            -------------------
          SCF calculation type: DFT
          Wavefunction type:  closed shell.
          No. of atoms     :    10
          No. of electrons :    30
           Alpha electrons :    15
            Beta electrons :    15
          Charge           :     0
          Spin multiplicity:     1
          Use of symmetry is: on ; symmetry adaption is: on 
          Maximum number of iterations: ***
          This is a Direct SCF calculation.
          AO basis - number of functions:    70
                     number of shells:    46
          Convergence on energy requested:  1.00D-06
          Convergence on density requested:  1.00D-05
          Convergence on gradient requested:  5.00D-04

              XC Information
              --------------
                         B3LYP Method XC Potential
                     Hartree-Fock (Exact) Exchange  0.200          
                        Slater Exchange Functional  0.800 local    
                    Becke 1988 Exchange Functional  0.720 non-local
              Lee-Yang-Parr Correlation Functional  0.810          
                  VWN I RPA Correlation Functional  0.190 local    

             Grid Information
             ----------------
          Grid used for XC integration:  fine      
          Radial quadrature: Mura-Knowles        
          Angular quadrature: Lebedev. 
          Tag              B.-S. Rad. Rad. Pts. Rad. Cut. Ang. Pts.
          ---              ---------- --------- --------- ---------
          C                   0.70       70          10.0       590
          H                   0.35       60          11.0       590
          Grid pruning is: on 
          Number of quadrature shells:   320
          Spatial weights used:  Erf1

          Convergence Information
          -----------------------
          Convergence aids based upon iterative change in 
          total energy or number of iterations. 
          Levelshifting, if invoked, occurs when the 
          HOMO/LUMO gap drops below (HL_TOL):  1.00D-02
          DIIS, if invoked, will attempt to extrapolate 
          using up to (NFOCK): 10 stored Fock matrices.

                    Damping( 0%)  Levelshifting(0.5)       DIIS
                  --------------- ------------------- ---------------
          dE  on:    start            ASAP                start   
          dE off:    2 iters        *** iters           *** iters 


      Screening Tolerance Information
      -------------------------------
          Density screening/tol_rho:  1.00D-10
          AO Gaussian exp screening on grid/accAOfunc:  14
          CD Gaussian exp screening on grid/accCDfunc:  20
          XC Gaussian exp screening on grid/accXCfunc:  20
          Schwarz screening/accCoul:  1.00D-08

          Performing ZORA calculations
          ----------------------------


      Superposition of Atomic Density Guess
      -------------------------------------

 Sum of atomic energies:        -153.67306699

 Read atomic ZORA corrections from ./C1C2C1C2_mol_2_conformer_0.zora_sf

 Forcing recalculation of ZORA corrections
       Generating atomic ZORA corrections
       ----------------------------------

 In dft_scf:: zora:Knucl= F

 Grid_pts file          = ./C1C2C1C2_mol_2_conformer_0.gridpts.00
 Record size in doubles =  12289        No. of grid_pts per rec  =   3070
 Max. records in memory =      3        Max. recs in file   =     13588

 Grid integrated density:      29.999992842165
 Requested integration accuracy:   0.10E-06

 Wrote atomic ZORA corrections to ./C1C2C1C2_mol_2_conformer_0.zora_sf


 Loading old vectors from job with title :

Molecule conformer 0


      Symmetry analysis of molecular orbitals - initial
      -------------------------------------------------

  Numbering of irreducible representations: 

     1 a1          2 a2          3 b1          4 b2      

  Orbital symmetries:

     1 b2          2 a1          3 a1          4 b1          5 a1      
     6 b2          7 a1          8 b1          9 a1         10 b2      
    11 b2         12 a1         13 a2         14 b1         15 a1      
    16 a1         17 b1         18 a1         19 b2         20 b1      
    21 b2         22 a1         23 a2         24 b1         25 a1      

   Time after variat. SCF:     26.1
   Time prior to 1st pass:     26.1

           Memory utilization after 1st SCF pass: 
           Heap Space remaining (MW):      131.03           131029058
          Stack Space remaining (MW):      131.06           131061516

   convergence    iter        energy       DeltaE   RMS-Dens  Diis-err    time
 ---------------- ----- ----------------- --------- --------- ---------  ------
 d= 0,ls=0.0,diis     1   -155.9945570595 -2.71D+02  3.38D-03  2.05D-02    27.8
 d= 0,ls=0.0,diis     2   -155.9978935277 -3.34D-03  7.88D-04  1.97D-03    29.9
 d= 0,ls=0.0,diis     3   -155.9979702852 -7.68D-05  3.88D-04  1.51D-03    31.3
 d= 0,ls=0.0,diis     4   -155.9981623343 -1.92D-04  4.14D-05  6.99D-06    32.9
 d= 0,ls=0.0,diis     5   -155.9981628563 -5.22D-07  2.29D-05  2.71D-06    34.0
 d= 0,ls=0.0,diis     6   -155.9981632015 -3.45D-07  5.43D-06  3.95D-08    35.7
(nogshift,skip_gshiftAOev,done_Fji)=( 1,F,F)


         Total DFT energy =     -155.998163201520
      One electron energy =     -435.541375808671
           Coulomb energy =      188.454446021703
    Exchange-Corr. energy =      -23.946352754290
 Nuclear repulsion energy =      115.035119339738

       Scaling correction =        0.035077392577

 Numeric. integr. density =       29.999997202101

     Total iterative time =      9.7s



                  Occupations of the irreducible representations
                  ----------------------------------------------

                     irrep           alpha         beta
                     --------     --------     --------
                     a1                7.0          7.0
                     a2                1.0          1.0
                     b1                3.0          3.0
                     b2                4.0          4.0


 center of mass
 --------------
 x =   0.00000000 y =  -0.00000000 z =  -0.00506353

 moments of inertia (a.u.)
 ------------------
         202.553003984349           0.000000000000           0.000000000000
           0.000000000000          95.394503887565           0.000000000000
           0.000000000000           0.000000000000         235.885686084386
 Line search: 
     step= 1.00 grad=-2.6D-02 hess= 7.1D-03 energy=   -155.998163 mode=downhill
 new step= 1.87                   predicted energy=   -156.003449
  no constraints, skipping    0.0000000000000000     
  no constraints, skipping    0.0000000000000000     
  no constraints, skipping    0.0000000000000000     
  no constraints, skipping    0.0000000000000000     
  no constraints, skipping    0.0000000000000000     
  no constraints, skipping    0.0000000000000000     
  no constraints, skipping    0.0000000000000000     
  no constraints, skipping    0.0000000000000000     

          --------
          Step   1
          --------


                         Geometry "geometry" -> "geometry"
                         ---------------------------------

 Output coordinates in angstroms (scale by  1.889725989 to convert to a.u.)

  No.       Tag          Charge          X              Y              Z
 ---- ---------------- ---------- -------------- -------------- --------------
    1 C                    6.0000     0.00000000    -1.18875514    -0.22569372
    2 C                    6.0000     0.82192786     0.00000000     0.21490974
    3 C                    6.0000    -0.82192786     0.00000000     0.21490974
    4 C                    6.0000     0.00000000     1.18875514    -0.22569372
    5 H                    1.0000     0.00000000    -1.98862114     0.45045779
    6 H                    1.0000     0.00000000    -1.41328408    -1.26147027
    7 H                    1.0000     1.20712631     0.00000000     1.20473784
    8 H                    1.0000    -1.20712631     0.00000000     1.20473784
    9 H                    1.0000     0.00000000     1.98862114     0.45045779
   10 H                    1.0000     0.00000000     1.41328408    -1.26147027

      Atomic Mass 
      ----------- 

      C                 12.000000
      H                  1.007825


 Effective nuclear repulsion energy (a.u.)     115.4186932397

            Nuclear Dipole moment (a.u.) 
            ----------------------------
        X                 Y               Z
 ---------------- ---------------- ----------------
     0.0000000000    -0.0000000000     1.2435207681

      Symmetry information
      --------------------

 Group name             C2v       
 Group number             16
 Group order               4
 No. of unique centers     5

      Symmetry unique atoms

     1    2    5    6    7


                                 NWChem DFT Module
                                 -----------------


                               Molecule conformer 0




 Summary of "ao basis" -> "ao basis" (spherical)
 ------------------------------------------------------------------------------
       Tag                 Description            Shells   Functions and Types
 ---------------- ------------------------------  ------  ---------------------
 C                           6-311G                  7       13   4s3p
 H                           6-311G                  3        3   3s


      Symmetry analysis of basis
      --------------------------

        a1         29
        a2          6
        b1         16
        b2         19

  Caching 1-el integrals 

            General Information
            -------------------
          SCF calculation type: DFT
          Wavefunction type:  closed shell.
          No. of atoms     :    10
          No. of electrons :    30
           Alpha electrons :    15
            Beta electrons :    15
          Charge           :     0
          Spin multiplicity:     1
          Use of symmetry is: on ; symmetry adaption is: on 
          Maximum number of iterations: ***
          This is a Direct SCF calculation.
          AO basis - number of functions:    70
                     number of shells:    46
          Convergence on energy requested:  1.00D-06
          Convergence on density requested:  1.00D-05
          Convergence on gradient requested:  5.00D-04

              XC Information
              --------------
                         B3LYP Method XC Potential
                     Hartree-Fock (Exact) Exchange  0.200          
                        Slater Exchange Functional  0.800 local    
                    Becke 1988 Exchange Functional  0.720 non-local
              Lee-Yang-Parr Correlation Functional  0.810          
                  VWN I RPA Correlation Functional  0.190 local    

             Grid Information
             ----------------
          Grid used for XC integration:  fine      
          Radial quadrature: Mura-Knowles        
          Angular quadrature: Lebedev. 
          Tag              B.-S. Rad. Rad. Pts. Rad. Cut. Ang. Pts.
          ---              ---------- --------- --------- ---------
          C                   0.70       70          10.0       590
          H                   0.35       60          11.0       590
          Grid pruning is: on 
          Number of quadrature shells:   320
          Spatial weights used:  Erf1

          Convergence Information
          -----------------------
          Convergence aids based upon iterative change in 
          total energy or number of iterations. 
          Levelshifting, if invoked, occurs when the 
          HOMO/LUMO gap drops below (HL_TOL):  1.00D-02
          DIIS, if invoked, will attempt to extrapolate 
          using up to (NFOCK): 10 stored Fock matrices.

                    Damping( 0%)  Levelshifting(0.5)       DIIS
                  --------------- ------------------- ---------------
          dE  on:    start            ASAP                start   
          dE off:    2 iters        *** iters           *** iters 


      Screening Tolerance Information
      -------------------------------
          Density screening/tol_rho:  1.00D-10
          AO Gaussian exp screening on grid/accAOfunc:  14
          CD Gaussian exp screening on grid/accCDfunc:  20
          XC Gaussian exp screening on grid/accXCfunc:  20
          Schwarz screening/accCoul:  1.00D-08

          Performing ZORA calculations
          ----------------------------


      Superposition of Atomic Density Guess
      -------------------------------------

 Sum of atomic energies:        -153.67306699

 Read atomic ZORA corrections from ./C1C2C1C2_mol_2_conformer_0.zora_sf

 Forcing recalculation of ZORA corrections
       Generating atomic ZORA corrections
       ----------------------------------

 In dft_scf:: zora:Knucl= F

 Grid_pts file          = ./C1C2C1C2_mol_2_conformer_0.gridpts.00
 Record size in doubles =  12289        No. of grid_pts per rec  =   3070
 Max. records in memory =      3        Max. recs in file   =     13578


 Wrote atomic ZORA corrections to ./C1C2C1C2_mol_2_conformer_0.zora_sf


 Loading old vectors from job with title :

Molecule conformer 0


      Symmetry analysis of molecular orbitals - initial
      -------------------------------------------------

  Numbering of irreducible representations: 

     1 a1          2 a2          3 b1          4 b2      

  Orbital symmetries:

     1 b2          2 a1          3 a1          4 b1          5 a1      
     6 b2          7 a1          8 b1          9 a1         10 b2      
    11 a1         12 b2         13 a2         14 b1         15 a1      
    16 b1         17 a1         18 a1         19 b2         20 b1      
    21 b2         22 a1         23 b1         24 a2         25 b2      

   Time after variat. SCF:     42.6
   Time prior to 1st pass:     42.6

           Memory utilization after 1st SCF pass: 
           Heap Space remaining (MW):      131.03           131029058
          Stack Space remaining (MW):      131.06           131061516

   convergence    iter        energy       DeltaE   RMS-Dens  Diis-err    time
 ---------------- ----- ----------------- --------- --------- ---------  ------
 d= 0,ls=0.0,diis     1   -156.0005928411 -2.71D+02  2.55D-03  1.50D-02    44.3
 d= 0,ls=0.0,diis     2   -156.0030640478 -2.47D-03  6.41D-04  1.30D-03    45.8
 d= 0,ls=0.0,diis     3   -156.0031174765 -5.34D-05  3.06D-04  9.85D-04    47.5
 d= 0,ls=0.0,diis     4   -156.0032424479 -1.25D-04  3.46D-05  4.57D-06    49.6
 d= 0,ls=0.0,diis     5   -156.0032428333 -3.85D-07  1.62D-05  1.47D-06    51.7
 d= 0,ls=0.0,diis     6   -156.0032430176 -1.84D-07  4.28D-06  3.34D-08    53.4
(nogshift,skip_gshiftAOev,done_Fji)=( 1,F,F)


         Total DFT energy =     -156.003243017617
      One electron energy =     -436.315631948486
           Coulomb energy =      188.889521383156
    Exchange-Corr. energy =      -23.995825691956
 Nuclear repulsion energy =      115.418693239670

       Scaling correction =        0.035057483184

 Numeric. integr. density =       30.000000843246

     Total iterative time =     10.9s



                  Occupations of the irreducible representations
                  ----------------------------------------------

                     irrep           alpha         beta
                     --------     --------     --------
                     a1                7.0          7.0
                     a2                1.0          1.0
                     b1                3.0          3.0
                     b2                4.0          4.0


 center of mass
 --------------
 x =   0.00000000 y =  -0.00000000 z =   0.01869892

 moments of inertia (a.u.)
 ------------------
         195.623443456874           0.000000000000           0.000000000000
           0.000000000000         100.055444243797           0.000000000000
           0.000000000000           0.000000000000         232.344634743048

            General Information
            -------------------
          SCF calculation type: DFT
          Wavefunction type:  closed shell.
          No. of atoms     :    10
          No. of electrons :    30
           Alpha electrons :    15
            Beta electrons :    15
          Charge           :     0
          Spin multiplicity:     1
          Use of symmetry is: on ; symmetry adaption is: on 
          Maximum number of iterations: ***
          This is a Direct SCF calculation.
          AO basis - number of functions:    70
                     number of shells:    46
          Convergence on energy requested:  1.00D-06
          Convergence on density requested:  1.00D-05
          Convergence on gradient requested:  5.00D-04

              XC Information
              --------------
                         B3LYP Method XC Potential
                     Hartree-Fock (Exact) Exchange  0.200          
                        Slater Exchange Functional  0.800 local    
                    Becke 1988 Exchange Functional  0.720 non-local
              Lee-Yang-Parr Correlation Functional  0.810          
                  VWN I RPA Correlation Functional  0.190 local    

             Grid Information
             ----------------
          Grid used for XC integration:  fine      
          Radial quadrature: Mura-Knowles        
          Angular quadrature: Lebedev. 
          Tag              B.-S. Rad. Rad. Pts. Rad. Cut. Ang. Pts.
          ---              ---------- --------- --------- ---------
          C                   0.70       70          10.0       590
          H                   0.35       60          11.0       590
          Grid pruning is: on 
          Number of quadrature shells:   320
          Spatial weights used:  Erf1

          Convergence Information
          -----------------------
          Convergence aids based upon iterative change in 
          total energy or number of iterations. 
          Levelshifting, if invoked, occurs when the 
          HOMO/LUMO gap drops below (HL_TOL):  1.00D-02
          DIIS, if invoked, will attempt to extrapolate 
          using up to (NFOCK): 10 stored Fock matrices.

                    Damping( 0%)  Levelshifting(0.5)       DIIS
                  --------------- ------------------- ---------------
          dE  on:    start            ASAP                start   
          dE off:    2 iters        *** iters           *** iters 


      Screening Tolerance Information
      -------------------------------
          Density screening/tol_rho:  1.00D-10
          AO Gaussian exp screening on grid/accAOfunc:  14
          CD Gaussian exp screening on grid/accCDfunc:  20
          XC Gaussian exp screening on grid/accXCfunc:  20
          Schwarz screening/accCoul:  1.00D-08



                            NWChem DFT Gradient Module
                            --------------------------


                               Molecule conformer 0



  charge          =   0.00
  wavefunction    = closed shell

  Using symmetry


                         DFT ENERGY GRADIENTS

    atom               coordinates                        gradient
                 x          y          z           x          y          z
   1 C       0.000000  -2.246421  -0.426499    0.000000  -0.038517   0.015723
   2 C       1.553218   0.000000   0.406121    0.012942   0.000000  -0.010029
   3 C      -1.553218   0.000000   0.406121   -0.012942   0.000000  -0.010029
   4 C       0.000000   2.246421  -0.426499    0.000000   0.038517   0.015723
   5 H       0.000000  -3.757949   0.851242    0.000000   0.024672  -0.010388
   6 H       0.000000  -2.670720  -2.383833    0.000000   0.009655   0.015188
   7 H       2.281138   0.000000   2.276624   -0.010983   0.000000  -0.010495
   8 H      -2.281138   0.000000   2.276624    0.010983   0.000000  -0.010495
   9 H       0.000000   3.757949   0.851242    0.000000  -0.024672  -0.010388
  10 H       0.000000   2.670720  -2.383833    0.000000  -0.009655   0.015188

                 ----------------------------------------
                 |  Time  |  1-e(secs)   |  2-e(secs)   |
                 ----------------------------------------
                 |  CPU   |       0.00   |       0.03   |
                 ----------------------------------------
                 |  WALL  |       0.00   |       0.03   |
                 ----------------------------------------
  no constraints, skipping    0.0000000000000000     

  Step       Energy      Delta E   Gmax     Grms     Xrms     Xmax   Walltime
  ---- ---------------- -------- -------- -------- -------- -------- --------
@    1    -156.00324302 -2.4D-02  0.02555  0.00569  0.10094  0.21829     54.9
                                                                    



                                Z-matrix (autoz)
                                -------- 

 Units are Angstrom for bonds and degrees for angles

      Type          Name      I     J     K     L     M      Value     Gradient
      ----------- --------  ----- ----- ----- ----- ----- ---------- ----------
    1 Stretch                  1     2                       1.51091   -0.00068
    2 Stretch                  1     3                       1.51091   -0.00068
    3 Stretch                  1     5                       1.04736   -0.02555
    4 Stretch                  1     6                       1.05983   -0.01689
    5 Stretch                  2     3                       1.64386   -0.00050
    6 Stretch                  2     4                       1.51091   -0.00068
    7 Stretch                  2     7                       1.06214   -0.01376
    8 Stretch                  3     4                       1.51091   -0.00068
    9 Stretch                  3     8                       1.06214   -0.01376
   10 Stretch                  4     9                       1.04736   -0.02555
   11 Stretch                  4    10                       1.05983   -0.01689
   12 Bend                     1     2     3                57.04386   -0.00009
   13 Bend                     1     2     4               103.77181    0.00122
   14 Bend                     1     2     7               117.97265   -0.00173
   15 Bend                     1     3     2                57.04386   -0.00009
   16 Bend                     1     3     4               103.77181    0.00122
   17 Bend                     1     3     8               117.97265   -0.00173
   18 Bend                     2     1     3                65.91228    0.00019
   19 Bend                     2     1     5               114.36848   -0.00082
   20 Bend                     2     1     6               116.85144   -0.00128
   21 Bend                     2     3     4                57.04386   -0.00009
   22 Bend                     2     3     8               111.26384   -0.00117
   23 Bend                     2     4     3                65.91228    0.00019
   24 Bend                     2     4     9               114.36848   -0.00082
   25 Bend                     2     4    10               116.85144   -0.00128
   26 Bend                     3     1     5               114.36848   -0.00082
   27 Bend                     3     1     6               116.85144   -0.00128
   28 Bend                     3     2     4                57.04386   -0.00009
   29 Bend                     3     2     7               111.26384   -0.00117
   30 Bend                     3     4     9               114.36848   -0.00082
   31 Bend                     3     4    10               116.85144   -0.00128
   32 Bend                     4     2     7               117.97265   -0.00173
   33 Bend                     4     3     8               117.97265   -0.00173
   34 Bend                     5     1     6               117.97790    0.00256
   35 Bend                     9     4    10               117.97790    0.00256
   36 Torsion                  1     2     3     4        -139.32628   -0.00291
   37 Torsion                  1     2     3     8         110.33686   -0.00146
   38 Torsion                  1     2     4     3          34.26788   -0.00215
   39 Torsion                  1     2     4     9         141.34513   -0.00275
   40 Torsion                  1     2     4    10         -74.89294   -0.00112
   41 Torsion                  1     3     2     4         139.32628    0.00291
   42 Torsion                  1     3     2     7        -110.33686    0.00146
   43 Torsion                  1     3     4     2         -34.26788    0.00215
   44 Torsion                  1     3     4     9        -141.34513    0.00275
   45 Torsion                  1     3     4    10          74.89294    0.00112
   46 Torsion                  2     1     3     4          34.26788   -0.00215
   47 Torsion                  2     1     3     8         -98.34103    0.00053
   48 Torsion                  2     3     1     5         107.07726   -0.00061
   49 Torsion                  2     3     1     6        -109.16082    0.00103
   50 Torsion                  2     3     4     9        -107.07726    0.00061
   51 Torsion                  2     3     4    10         109.16082   -0.00103
   52 Torsion                  2     4     3     8          98.34103   -0.00053
   53 Torsion                  3     1     2     4         -34.26788    0.00215
   54 Torsion                  3     1     2     7          98.34103   -0.00053
   55 Torsion                  3     2     1     5        -107.07726    0.00061
   56 Torsion                  3     2     1     6         109.16082   -0.00103
   57 Torsion                  3     2     4     9         107.07726   -0.00061
   58 Torsion                  3     2     4    10        -109.16082    0.00103
   59 Torsion                  3     4     2     7         -98.34103    0.00053
   60 Torsion                  4     2     1     5        -141.34513    0.00275
   61 Torsion                  4     2     1     6          74.89294    0.00112
   62 Torsion                  4     2     3     8        -110.33686    0.00146
   63 Torsion                  4     3     1     5         141.34513   -0.00275
   64 Torsion                  4     3     1     6         -74.89294   -0.00112
   65 Torsion                  4     3     2     7         110.33686   -0.00146
   66 Torsion                  5     1     2     7          -8.73622    0.00007
   67 Torsion                  5     1     3     8           8.73622   -0.00007
   68 Torsion                  6     1     2     7        -152.49815   -0.00156
   69 Torsion                  6     1     3     8         152.49815    0.00156
   70 Torsion                  7     2     3     8           0.00000   -0.00000
   71 Torsion                  7     2     4     9           8.73622   -0.00007
   72 Torsion                  7     2     4    10         152.49815    0.00156
   73 Torsion                  8     3     4     9          -8.73622    0.00007
   74 Torsion                  8     3     4    10        -152.49815   -0.00156

 Restricting large step in mode    1 eval= 2.0D-02 step=-4.7D-01 new=-3.0D-01
  no constraints, skipping    0.0000000000000000     
  no constraints, skipping    0.0000000000000000     
  no constraints, skipping    0.0000000000000000     
  no constraints, skipping    0.0000000000000000     
  no constraints, skipping    0.0000000000000000     
  no constraints, skipping    0.0000000000000000     
  no constraints, skipping    0.0000000000000000     
  no constraints, skipping    0.0000000000000000     

                                 NWChem DFT Module
                                 -----------------


                               Molecule conformer 0




 Summary of "ao basis" -> "ao basis" (spherical)
 ------------------------------------------------------------------------------
       Tag                 Description            Shells   Functions and Types
 ---------------- ------------------------------  ------  ---------------------
 C                           6-311G                  7       13   4s3p
 H                           6-311G                  3        3   3s


      Symmetry analysis of basis
      --------------------------

        a1         29
        a2          6
        b1         16
        b2         19

  Caching 1-el integrals 

            General Information
            -------------------
          SCF calculation type: DFT
          Wavefunction type:  closed shell.
          No. of atoms     :    10
          No. of electrons :    30
           Alpha electrons :    15
            Beta electrons :    15
          Charge           :     0
          Spin multiplicity:     1
          Use of symmetry is: on ; symmetry adaption is: on 
          Maximum number of iterations: ***
          This is a Direct SCF calculation.
          AO basis - number of functions:    70
                     number of shells:    46
          Convergence on energy requested:  1.00D-06
          Convergence on density requested:  1.00D-05
          Convergence on gradient requested:  5.00D-04

              XC Information
              --------------
                         B3LYP Method XC Potential
                     Hartree-Fock (Exact) Exchange  0.200          
                        Slater Exchange Functional  0.800 local    
                    Becke 1988 Exchange Functional  0.720 non-local
              Lee-Yang-Parr Correlation Functional  0.810          
                  VWN I RPA Correlation Functional  0.190 local    

             Grid Information
             ----------------
          Grid used for XC integration:  fine      
          Radial quadrature: Mura-Knowles        
          Angular quadrature: Lebedev. 
          Tag              B.-S. Rad. Rad. Pts. Rad. Cut. Ang. Pts.
          ---              ---------- --------- --------- ---------
          C                   0.70       70          10.0       590
          H                   0.35       60          11.0       590
          Grid pruning is: on 
          Number of quadrature shells:   320
          Spatial weights used:  Erf1

          Convergence Information
          -----------------------
          Convergence aids based upon iterative change in 
          total energy or number of iterations. 
          Levelshifting, if invoked, occurs when the 
          HOMO/LUMO gap drops below (HL_TOL):  1.00D-02
          DIIS, if invoked, will attempt to extrapolate 
          using up to (NFOCK): 10 stored Fock matrices.

                    Damping( 0%)  Levelshifting(0.5)       DIIS
                  --------------- ------------------- ---------------
          dE  on:    start            ASAP                start   
          dE off:    2 iters        *** iters           *** iters 


      Screening Tolerance Information
      -------------------------------
          Density screening/tol_rho:  1.00D-10
          AO Gaussian exp screening on grid/accAOfunc:  14
          CD Gaussian exp screening on grid/accCDfunc:  20
          XC Gaussian exp screening on grid/accXCfunc:  20
          Schwarz screening/accCoul:  1.00D-08

          Performing ZORA calculations
          ----------------------------


      Superposition of Atomic Density Guess
      -------------------------------------

 Sum of atomic energies:        -153.67306699

 Read atomic ZORA corrections from ./C1C2C1C2_mol_2_conformer_0.zora_sf

 Forcing recalculation of ZORA corrections
       Generating atomic ZORA corrections
       ----------------------------------

 In dft_scf:: zora:Knucl= F

 Grid_pts file          = ./C1C2C1C2_mol_2_conformer_0.gridpts.00
 Record size in doubles =  12289        No. of grid_pts per rec  =   3070
 Max. records in memory =      3        Max. recs in file   =     13588


 Wrote atomic ZORA corrections to ./C1C2C1C2_mol_2_conformer_0.zora_sf


 Loading old vectors from job with title :

Molecule conformer 0


      Symmetry analysis of molecular orbitals - initial
      -------------------------------------------------

  Numbering of irreducible representations: 

     1 a1          2 a2          3 b1          4 b2      

  Orbital symmetries:

     1 a1          2 b1          3 b2          4 a1          5 a1      
     6 b2          7 b1          8 a1          9 a1         10 b2      
    11 a1         12 b2         13 a2         14 b1         15 a1      
    16 b1         17 a1         18 a1         19 b2         20 b1      
    21 b2         22 a1         23 b1         24 a2         25 b2      

   Time after variat. SCF:     61.5
   Time prior to 1st pass:     61.5

           Memory utilization after 1st SCF pass: 
           Heap Space remaining (MW):      131.03           131029058
          Stack Space remaining (MW):      131.06           131061516

   convergence    iter        energy       DeltaE   RMS-Dens  Diis-err    time
 ---------------- ----- ----------------- --------- --------- ---------  ------
 d= 0,ls=0.0,diis     1   -156.0080416442 -2.71D+02  1.93D-03  7.03D-03    63.2
 d= 0,ls=0.0,diis     2   -156.0089701409 -9.28D-04  7.35D-04  1.52D-03    64.8
 d= 0,ls=0.0,diis     3   -156.0090792909 -1.09D-04  2.32D-04  7.30D-04    66.4
 d= 0,ls=0.0,diis     4   -156.0091679943 -8.87D-05  5.03D-05  3.94D-06    68.3
 d= 0,ls=0.0,diis     5   -156.0091684319 -4.38D-07  1.56D-05  9.71D-07    69.9
 d= 0,ls=0.0,diis     6   -156.0091685574 -1.25D-07  6.39D-06  1.96D-08    71.6
(nogshift,skip_gshiftAOev,done_Fji)=( 1,F,F)


         Total DFT energy =     -156.009168557370
      One electron energy =     -434.966695336332
           Coulomb energy =      188.195926999803
    Exchange-Corr. energy =      -23.941898056238
 Nuclear repulsion energy =      114.703497835396

       Scaling correction =        0.035068234074

 Numeric. integr. density =       29.999999072181

     Total iterative time =     10.3s



                  Occupations of the irreducible representations
                  ----------------------------------------------

                     irrep           alpha         beta
                     --------     --------     --------
                     a1                7.0          7.0
                     a2                1.0          1.0
                     b1                3.0          3.0
                     b2                4.0          4.0


 center of mass
 --------------
 x =   0.00000000 y =   0.00000000 z =   0.02900224

 moments of inertia (a.u.)
 ------------------
         196.075280219217           0.000000000000           0.000000000000
           0.000000000000         102.966134750777           0.000000000000
           0.000000000000           0.000000000000         232.072264834124
 Line search: 
     step= 1.00 grad=-8.6D-03 hess= 2.7D-03 energy=   -156.009169 mode=downhill
 new step= 1.62                   predicted energy=   -156.010179
  no constraints, skipping    0.0000000000000000     
  no constraints, skipping    0.0000000000000000     
  no constraints, skipping    0.0000000000000000     
  no constraints, skipping    0.0000000000000000     
  no constraints, skipping    0.0000000000000000     
  no constraints, skipping    0.0000000000000000     
  no constraints, skipping    0.0000000000000000     
  no constraints, skipping    0.0000000000000000     

          --------
          Step   2
          --------


                         Geometry "geometry" -> "geometry"
                         ---------------------------------

 Output coordinates in angstroms (scale by  1.889725989 to convert to a.u.)

  No.       Tag          Charge          X              Y              Z
 ---- ---------------- ---------- -------------- -------------- --------------
    1 C                    6.0000     0.00000000    -1.17096983    -0.23587858
    2 C                    6.0000     0.82849711     0.00000000     0.24744449
    3 C                    6.0000    -0.82849711     0.00000000     0.24744449
    4 C                    6.0000     0.00000000     1.17096983    -0.23587858
    5 H                    1.0000     0.00000000    -2.04407089     0.42693204
    6 H                    1.0000     0.00000000    -1.40083015    -1.30203873
    7 H                    1.0000     1.25371352     0.00000000     1.24648216
    8 H                    1.0000    -1.25371352     0.00000000     1.24648216
    9 H                    1.0000     0.00000000     2.04407089     0.42693204
   10 H                    1.0000     0.00000000     1.40083015    -1.30203873

      Atomic Mass 
      ----------- 

      C                 12.000000
      H                  1.007825


 Effective nuclear repulsion energy (a.u.)     114.2764941958

            Nuclear Dipole moment (a.u.) 
            ----------------------------
        X                 Y               Z
 ---------------- ---------------- ----------------
     0.0000000000     0.0000000000     1.6658723846

      Symmetry information
[...]
(dia2,par1)(k,t,iat1,spin)=(  2,  2,  9,  1)=(     0.04404392,     0.04404392,     0.23836724,     0.23836724) ppm
(dia2,par1)(k,t,iat1,spin)=(  3,  2,  9,  1)=(    -2.66433277,    -2.66433277,     0.07195045,     0.07195045) ppm
(dia2,par1)(k,t,iat1,spin)=(  1,  3,  9,  1)=(    -0.00140648,    -0.00140648,     0.00181578,     0.00181578) ppm
(dia2,par1)(k,t,iat1,spin)=(  2,  3,  9,  1)=(    -3.50262553,    -3.50262553,     0.44663534,     0.44663534) ppm
(dia2,par1)(k,t,iat1,spin)=(  3,  3,  9,  1)=(     5.09824510,     5.09824510,    -3.43602353,    -3.43602353) ppm
 Grid integrated density:      30.000003893440
 Requested integration accuracy:   0.10E-06
dia1(k,t,iat1,ispin)=(  1,  1, 10,  1)=(    17.56181646,    17.56181646) ppm
dia1(k,t,iat1,ispin)=(  1,  2, 10,  1)=(    -0.00090933,    -0.00090933) ppm
dia1(k,t,iat1,ispin)=(  1,  3, 10,  1)=(     0.00186836,     0.00186836) ppm
dia1(k,t,iat1,ispin)=(  2,  1, 10,  1)=(    -0.00188415,    -0.00188415) ppm
dia1(k,t,iat1,ispin)=(  2,  2, 10,  1)=(    21.10644984,    21.10644984) ppm
dia1(k,t,iat1,ispin)=(  2,  3, 10,  1)=(    -5.66539014,    -5.66539014) ppm
dia1(k,t,iat1,ispin)=(  3,  1, 10,  1)=(     0.00215145,     0.00215145) ppm
dia1(k,t,iat1,ispin)=(  3,  2, 10,  1)=(    -4.96454464,    -4.96454464) ppm
dia1(k,t,iat1,ispin)=(  3,  3, 10,  1)=(    40.23614629,    40.23614629) ppm
(dia2,par1)(k,t,iat1,spin)=(  1,  1, 10,  1)=(     5.34821983,     5.34821983,    -1.06315552,    -1.06315552) ppm
(dia2,par1)(k,t,iat1,spin)=(  2,  1, 10,  1)=(    -0.00136845,    -0.00136845,     0.00067894,     0.00067894) ppm
(dia2,par1)(k,t,iat1,spin)=(  3,  1, 10,  1)=(    -0.00018357,    -0.00018357,    -0.00410089,    -0.00410089) ppm
(dia2,par1)(k,t,iat1,spin)=(  1,  2, 10,  1)=(    -0.00069607,    -0.00069607,     0.00080509,     0.00080509) ppm
(dia2,par1)(k,t,iat1,spin)=(  2,  2, 10,  1)=(     6.37479841,     6.37479841,     1.14735897,     1.14735897) ppm
(dia2,par1)(k,t,iat1,spin)=(  3,  2, 10,  1)=(     0.73653800,     0.73653800,    -2.30547201,    -2.30547201) ppm
(dia2,par1)(k,t,iat1,spin)=(  1,  3, 10,  1)=(     0.00147613,     0.00147613,     0.00069519,     0.00069519) ppm
(dia2,par1)(k,t,iat1,spin)=(  2,  3, 10,  1)=(     2.25454172,     2.25454172,     0.47449543,     0.47449543) ppm
(dia2,par1)(k,t,iat1,spin)=(  3,  3, 10,  1)=(    -0.79152196,    -0.79152196,    -2.70430782,    -2.70430782) ppm
 Grid integrated density:      30.000003893440
 Requested integration accuracy:   0.10E-06

 Wrote ZORA NMR data to ./C1C2C1C2_mol_2_conformer_0.zora_nmrcs

(nogshift,skip_gshiftAOev,done_Fji)=( 1,F,T)


         Total DFT energy =     -156.022697211140
      One electron energy =     -437.067755771477
           Coulomb energy =      189.278172306559
    Exchange-Corr. energy =      -23.962455343464
 Nuclear repulsion energy =      115.629844336647

             COSMO energy =        0.099497260595

       Scaling correction =        0.035135912829

 Numeric. integr. density =       30.000001527457

     Total iterative time =     51.4s


                                   COSMO solvation results
                                   -----------------------

                 gas phase energy =      -156.020167265767
                 sol phase energy =      -156.022697211140
 (electrostatic) solvation energy =         0.002529945373 (    1.59 kcal/mol)

 center of mass
 --------------
 x =   0.00000000 y =   0.00000000 z =   0.16244807

 moments of inertia (a.u.)
 ------------------
         195.730760324331           0.000000000000           0.000000000000
           0.000000000000         105.241306933736           0.000000000000
           0.000000000000           0.000000000000         218.542146800302

            Scalar ZORA NMR Shielding
            -------------------------


          -----------------------------------------
          Chemical Shielding Tensors (GIAO, in ppm)
          -----------------------------------------


 Read ZORA NMR data from ./C1C2C1C2_mol_2_conformer_0.zora_nmrcs

    0 giaofock schwarz done =      98.09%
    0 giaofock schwarz done =      97.54%
                                NWChem CPHF Module
                                ------------------



 solvent parameters
 solvname_short: cdcl3   
 solvname_long:  unknown                            
 dielec:       78.4000
 dielecinf:     1.7769

          ---------------
          -cosmo- solvent
          ---------------
 Cosmo: York-Karplus, doi: 10.1021/jp992097l
 dielectric constant -eps-     =  78.40
 screen = (eps-1)/(eps    )    =   0.98724
 surface charge correction     = lagrangian
 -lineq- algorithm             =   0
 -bem- low  level              =   2
 -bem- from -octahedral-
 gaussian surface charge width =   0.98000
 degree of switching           =   1.00000
 switching function tolerance  =   0.00010
 atomic radii = 
 --------------
    1  6.000  2.000
    2  6.000  2.000
    3  6.000  2.000
    4  6.000  2.000
    5  1.000  1.300
    6  1.000  1.300
    7  1.000  1.300
    8  1.000  1.300
    9  1.000  1.300
   10  1.000  1.300

 solvent accessible surface
 --------------------------

 ---------- ATOMIC COORDINATES (A.U.) ------------ VDWR(ANG.) --
     1    0.00000000   -2.16056006   -0.43690832     2.000
     2    1.42632895    0.00000000    0.76992654     2.000
     3   -1.42632895    0.00000000    0.76992654     2.000
     4    0.00000000    2.16056006   -0.43690832     2.000
     5    0.00000000   -3.94829437    0.56065142     1.300
     6    0.00000000   -2.34258596   -2.48242280     1.300
     7    2.74612310    0.00000000    2.31240743     1.300
     8   -2.74612310    0.00000000    2.31240743     1.300
     9    0.00000000    3.94829437    0.56065142     1.300
    10    0.00000000    2.34258596   -2.48242280     1.300
 number of segments per atom =         32
 number of   points per atom =         32
 atom (   nspa,  nppa )
 ----------------------
    1 (     14,     0 )       0
    2 (     16,     0 )       0
    3 (     16,     0 )       0
    4 (     14,     0 )       0
    5 (     16,     0 )       0
    6 (     16,     0 )       0
    7 (     12,     0 )       0
    8 (     12,     0 )       0
    9 (     16,     0 )       0
   10 (     16,     0 )       0
 number of -cosmo- surface points =      148
 molecular surface =     90.016 angstrom**2
 molecular volume  =     51.554 angstrom**3
 G(cav/disp)       =      1.310 kcal/mol
 ...... end of -cosmo- initialization ......


  scftype          =     RHF 
  nclosed          =       15
  nopen            =        0
  variables        =      825
  # of vectors     =        3
  tolerance        = 0.10D-03
  level shift      = 0.00D+00
  max iterations   =       50
  max subspace     =       30

 SCF residual:    1.4154967244177111E-004


Iterative solution of linear equations
  No. of variables      825
  No. of equations        3
  Maximum subspace       30
        Iterations       50
       Convergence  1.0D-04
        Start time    883.4


   iter   nsub   residual    time
   ----  ------  --------  ---------
     1      3    4.48D-01     885.5
     2      6    7.68D-03     887.4
     3      9    5.03D-04     889.2
     4     12    2.81D-05     891.2

 Wrote CPHF data to ./C1C2C1C2_mol_2_conformer_0.shieldcphf

 Calc. par tensor-> zora
      Atom:    1  H 
        Diamagnetic
     24.1429      0.0037      0.0003
      0.0037     39.1565     -5.0646
      0.0003     -5.0646     26.9552

        Paramagnetic
      2.4112     -0.0038      0.0004
     -0.0038      1.1941      2.4625
      0.0004      2.4625      0.4998

        Total Shielding Tensor
     26.5542     -0.0002      0.0007
     -0.0002     40.3507     -2.6021
      0.0007     -2.6021     27.4550

           isotropic =      31.4533
          anisotropy =      14.1040

          Principal Components and Axis System
                 1           2           3
               40.8559     26.9497     26.5542

      1        -0.0000      0.0016      1.0000
      2         0.9817      0.1906     -0.0003
      3        -0.1906      0.9817     -0.0016



      Atom:    2  H 
        Diamagnetic
     22.9274      0.0026      0.0021
      0.0026     27.4925      3.8178
      0.0021      3.8178     39.4606

        Paramagnetic
      3.9520     -0.0020     -0.0008
     -0.0020      3.1404     -0.2875
     -0.0008     -0.2875     -0.8698

        Total Shielding Tensor
     26.8794      0.0006      0.0013
      0.0006     30.6329      3.5304
      0.0013      3.5304     38.5908

           isotropic =      32.0344
          anisotropy =      11.8452

          Principal Components and Axis System
                 1           2           3
               39.9312     29.2925     26.8794

      1         0.0001      0.0000      1.0000
      2         0.3550      0.9349     -0.0001
      3         0.9349     -0.3550     -0.0001



      Atom:    3  H 
        Diamagnetic
     30.8975      0.0017      8.2032
      0.0017     24.3402      0.0016
      8.2032      0.0016     32.3586

        Paramagnetic
     -0.1286      0.0004     -1.5278
      0.0004      4.0259      0.0002
     -1.5278      0.0002      2.8439

        Total Shielding Tensor
     30.7689      0.0021      6.6754
      0.0021     28.3660      0.0018
      6.6754      0.0018     35.2025

           isotropic =      31.4458
          anisotropy =      12.8607

          Principal Components and Axis System
                 1           2           3
               40.0196     28.3660     25.9518

      1         0.5852      0.0001      0.8109
      2         0.0002      1.0000     -0.0003
      3         0.8109     -0.0003     -0.5852



      Atom:    4  H 
        Diamagnetic
     30.8757     -0.0012     -8.2060
     -0.0012     24.3148      0.0011
     -8.2060      0.0011     32.3381

        Paramagnetic
     -0.1223     -0.0004      1.5275
     -0.0004      4.0427      0.0011
      1.5275      0.0011      2.8379

        Total Shielding Tensor
     30.7534     -0.0016     -6.6786
     -0.0016     28.3575      0.0022
     -6.6786      0.0022     35.1760

           isotropic =      31.4290
          anisotropy =      12.8563

          Principal Components and Axis System
                 1           2           3
               39.9998     28.3575     25.9296

      1        -0.5855      0.0001      0.8107
      2         0.0002      1.0000      0.0000
      3         0.8107     -0.0002      0.5855



      Atom:    5  H 
        Diamagnetic
     24.1286     -0.0034      0.0004
     -0.0034     39.1457      5.0648
      0.0004      5.0648     26.9422

        Paramagnetic
      2.4027      0.0044      0.0001
      0.0044      1.1887     -2.4660
      0.0001     -2.4660      0.4934

        Total Shielding Tensor
     26.5313      0.0009      0.0005
      0.0009     40.3344      2.5988
      0.0005      2.5988     27.4356

           isotropic =      31.4337
          anisotropy =      14.1068

          Principal Components and Axis System
                 1           2           3
               40.8383     26.9317     26.5313

      1         0.0001      0.0007      1.0000
      2         0.9817     -0.1904      0.0001
      3         0.1904      0.9817     -0.0007



      Atom:    6  H 
        Diamagnetic
     22.9100     -0.0024      0.0027
     -0.0024     27.4812     -3.8194
      0.0027     -3.8194     39.4446

        Paramagnetic
      3.9507      0.0022     -0.0023
      0.0022      3.1404      0.2874
     -0.0023      0.2874     -0.8799

        Total Shielding Tensor
     26.8607     -0.0002      0.0003
     -0.0002     30.6217     -3.5321
      0.0003     -3.5321     38.5647

           isotropic =      32.0157
          anisotropy =      11.8387

          Principal Components and Axis System
                 1           2           3
               39.9081     29.2783     26.8607

      1         0.0000     -0.0000      1.0000
      2        -0.3555      0.9347      0.0000
      3         0.9347      0.3555     -0.0000




 Task  times  cpu:       71.1s     wall:       70.7s


                                NWChem Input Module
                                -------------------


 Summary of allocated global arrays
-----------------------------------
  array 0 => double precision sf 1(70,70),  handle: -987 
  array 1 => double precision sf 1(70,70),  handle: -986 
  array 2 => double precision sf 1(70,70),  handle: -985 
  array 3 => double precision sf 1(70,70),  handle: -984 
  array 4 => double precision sf 1(70,70),  handle: -983 
  array 5 => double precision sf 1(70,70),  handle: -982 
  array 6 => double precision sf 1(70,70),  handle: -981 
  array 7 => double precision sf 1(70,70),  handle: -980 
  array 8 => double precision sf 1(70,70),  handle: -979 
  array 9 => double precision sf 1(70,70),  handle: -978 
  array 10 => double precision sf 1(70,70),  handle: -977 
  array 11 => double precision sf 1(70,70),  handle: -976 
  array 12 => double precision sf 1(70,70),  handle: -975 
  array 13 => double precision sf 1(70,70),  handle: -974 
  array 14 => double precision sf 1(70,70),  handle: -973 
  array 15 => double precision sf 1(70,70),  handle: -972 
  array 16 => double precision sf 1(70,70),  handle: -971 
  array 17 => double precision sf 1(70,70),  handle: -970 
  array 18 => double precision sf 1(70,70),  handle: -969 
  array 19 => double precision sf 1(70,70),  handle: -968 
  array 20 => double precision sf 1(70,70),  handle: -967 
  array 21 => double precision sf 1(70,70),  handle: -966 
  array 22 => double precision sf 1(70,70),  handle: -965 
  array 23 => double precision sf 1(70,70),  handle: -964 
  array 24 => double precision sf 1(70,70),  handle: -963 
  array 25 => double precision sf 1(70,70),  handle: -962 
  array 26 => double precision sf 1(70,70),  handle: -961 
  array 27 => double precision sf 1(70,70),  handle: -960 
  array 28 => double precision sf 1(70,70),  handle: -959 
  array 29 => double precision sf 1(70,70),  handle: -958 
  array 30 => double precision sf 1(70,70),  handle: -957 
  array 31 => double precision sf 1(70,70),  handle: -956 
  array 32 => double precision sf 1(70,70),  handle: -955 
  array 33 => double precision sf 1(70,70),  handle: -954 
  array 34 => double precision sf 1(70,70),  handle: -953 
  array 35 => double precision sf 1(70,70),  handle: -952 
  array 36 => double precision sf 1(70,70),  handle: -951 
  array 37 => double precision sf 1(70,70),  handle: -950 
  array 38 => double precision sf 1(70,70),  handle: -949 
  array 39 => double precision sf 1(70,70),  handle: -948 
  array 40 => double precision sf 1(70,70),  handle: -947 
  array 41 => double precision sf 1(70,70),  handle: -946 
  array 42 => double precision sf 1(70,70),  handle: -945 
  array 43 => double precision sf 1(70,70),  handle: -944 
  array 44 => double precision sf 1(70,70),  handle: -943 
  array 45 => double precision sf 1(70,70),  handle: -942 
  array 46 => double precision sf 1(70,70),  handle: -941 
  array 47 => double precision sf 1(70,70),  handle: -940 
  array 48 => double precision sf 1(70,70),  handle: -939 
  array 49 => double precision sf 1(70,70),  handle: -938 
  array 50 => double precision sf 1(70,70),  handle: -937 



                         GA Statistics for process    0
                         ------------------------------

       create   destroy   get      put      acc     scatter   gather  read&inc
calls: 9188     8822     2.81e+05 5.41e+04 7.60e+04   60        0     6684     
number of processes/call 0.00e+00 0.00e+00 0.00e+00 0.00e+00 0.00e+00
bytes total:             3.60e+08 5.51e+07 2.84e+08 3.36e+02 0.00e+00 5.35e+04
bytes remote:            3.17e+08 4.52e+07 2.61e+08 -1.68e+02 0.00e+00 0.00e+00
Max memory consumed for GA by this process: 580576 bytes

MA_summarize_allocated_blocks: starting scan ...
MA_summarize_allocated_blocks: scan completed: 0 heap blocks, 0 stack blocks
MA usage statistics:

	allocation statistics:
					      heap	     stack
					      ----	     -----
	current number of blocks	         0	         0
	maximum number of blocks	        66	        59
	current total bytes		         0	         0
	maximum total bytes		   2004872	  27319128
	maximum total K-bytes		      2005	     27320
	maximum total M-bytes		         3	        28


                                     CITATION
                                     --------
                Please cite the following reference when publishing
                           results obtained with NWChem:

          E. Apr, E. J. Bylaska, W. A. de Jong, N. Govind, K. Kowalski,
       T. P. Straatsma, M. Valiev, H. J. J. van Dam, Y. Alexeev, J. Anchell,
       V. Anisimov, F. W. Aquino, R. Atta-Fynn, J. Autschbach, N. P. Bauman,
     J. C. Becca, D. E. Bernholdt, K. Bhaskaran-Nair, S. Bogatko, P. Borowski,
        J. Boschen, J. Brabec, A. Bruner, E. Caut, Y. Chen, G. N. Chuev,
      C. J. Cramer, J. Daily, M. J. O. Deegan, T. H. Dunning Jr., M. Dupuis,
   K. G. Dyall, G. I. Fann, S. A. Fischer, A. Fonari, H. Frchtl, L. Gagliardi,
      J. Garza, N. Gawande, S. Ghosh, K. Glaesemann, A. W. Gtz, J. Hammond,
       V. Helms, E. D. Hermes, K. Hirao, S. Hirata, M. Jacquelin, L. Jensen,
   B. G. Johnson, H. Jnsson, R. A. Kendall, M. Klemm, R. Kobayashi, V. Konkov,
      S. Krishnamoorthy, M. Krishnan, Z. Lin, R. D. Lins, R. J. Littlefield,
      A. J. Logsdail, K. Lopata, W. Ma, A. V. Marenich, J. Martin del Campo,
   D. Mejia-Rodriguez, J. E. Moore, J. M. Mullin, T. Nakajima, D. R. Nascimento,
    J. A. Nichols, P. J. Nichols, J. Nieplocha, A. Otero-de-la-Roza, B. Palmer,
    A. Panyala, T. Pirojsirikul, B. Peng, R. Peverati, J. Pittner, L. Pollack,
   R. M. Richard, P. Sadayappan, G. C. Schatz, W. A. Shelton, D. W. Silverstein,
   D. M. A. Smith, T. A. Soares, D. Song, M. Swart, H. L. Taylor, G. S. Thomas,
            V. Tipparaju, D. G. Truhlar, K. Tsemekhman, T. Van Voorhis,
     . Vzquez-Mayagoitia, P. Verma, O. Villa, A. Vishnu, K. D. Vogiatzis,
        D. Wang, J. H. Weare, M. J. Williamson, T. L. Windus, K. Woliski,
        A. T. Wong, Q. Wu, C. Yang, Q. Yu, M. Zacharias, Z. Zhang, Y. Zhao,
                                and R. J. Harrison
                        "NWChem: Past, present, and future
                         J. Chem. Phys. 152, 184102 (2020)
                               doi:10.1063/5.0004997

                                      AUTHORS
                                      -------
     E. Apra, E. J. Bylaska, N. Govind, K. Kowalski, M. Valiev, W. A. de Jong,
      T. P. Straatsma, H. J. J. van Dam, D. Wang, T. L. Windus, N. P. Bauman,
       A. Panyala, J. Hammond, J. Autschbach, K. Bhaskaran-Nair, J. Brabec,
    K. Lopata, S. A. Fischer, S. Krishnamoorthy, M. Jacquelin, W. Ma, M. Klemm,
       O. Villa, Y. Chen, V. Anisimov, F. Aquino, S. Hirata, M. T. Hackler,
           Eric Hermes, L. Jensen, J. E. Moore, J. C. Becca, V. Konjkov,
            D. Mejia-Rodriguez, T. Risthaus, M. Malagoli, A. Marenich,
   A. Otero-de-la-Roza, J. Mullin, P. Nichols, R. Peverati, J. Pittner, Y. Zhao,
        P.-D. Fan, A. Fonari, M. J. Williamson, R. J. Harrison, J. R. Rehr,
      M. Dupuis, D. Silverstein, D. M. A. Smith, J. Nieplocha, V. Tipparaju,
      M. Krishnan, B. E. Van Kuiken, A. Vazquez-Mayagoitia, M. Swart, Q. Wu,
   T. Van Voorhis, A. A. Auer, M. Nooijen, L. D. Crosby, E. Brown, G. Cisneros,
     G. I. Fann, H. Fruchtl, J. Garza, K. Hirao, R. A. Kendall, J. A. Nichols,
       K. Tsemekhman, K. Wolinski, J. Anchell, D. E. Bernholdt, P. Borowski,
       T. Clark, D. Clerc, H. Dachsel, M. J. O. Deegan, K. Dyall, D. Elwood,
      E. Glendening, M. Gutowski, A. C. Hess, J. Jaffe, B. G. Johnson, J. Ju,
        R. Kobayashi, R. Kutteh, Z. Lin, R. Littlefield, X. Long, B. Meng,
      T. Nakajima, S. Niu, L. Pollack, M. Rosing, K. Glaesemann, G. Sandrone,
      M. Stave, H. Taylor, G. Thomas, J. H. van Lenthe, A. T. Wong, Z. Zhang.

 Total times  cpu:      929.4s     wall:      891.5s
