 argument  1 = C1C2C1C2_mol_8_conformer_0.nw



============================== echo of input deck ==============================
start

title "Molecule conformer 0"

memory total 4000 mb

echo
geometry units angstroms
   C      1.2183    -0.0416     0.4094
   C     -0.0266     0.7625     0.1100
   C      0.0384    -0.7338    -0.2348
   C     -1.2725    -0.0925     0.1606
   H      1.3484    -0.2830     1.4848
   H      2.0743     0.1530    -0.2715
   H      0.0560     1.3445    -0.8347
   H      0.1506    -0.8357    -1.3370
   H     -1.9841     0.0703    -0.6768
   H     -1.6028    -0.3438     1.1899
end


basis spherical
* library 6-311G
end

driver
  maxiter 500
  xyz final
end

relativistic
  zora on
  zora:cutoff_NMR 1d-8
  zora:cutoff 1d-30
end

dft
  direct
  grid fine
  xc B3LYP
  mult 1
  maxiter 1500
  noprint "final vectors analysis" multipole
end

task dft optimize

task dft freq

property
  shielding 6 5 6 7 8 9 10
end

cosmo
   solvent cdcl3
end

task dft property
================================================================================


                                         
                                         


             Northwest Computational Chemistry Package (NWChem) 7.0.2
             --------------------------------------------------------


                    Environmental Molecular Sciences Laboratory
                       Pacific Northwest National Laboratory
                                Richland, WA 99352

                              Copyright (c) 1994-2020
                       Pacific Northwest National Laboratory
                            Battelle Memorial Institute

             NWChem is an open-source computational chemistry package
                        distributed under the terms of the
                      Educational Community License (ECL) 2.0
             A copy of the license is included with this distribution
                              in the LICENSE.TXT file

                                  ACKNOWLEDGMENT
                                  --------------

            This software and its documentation were developed at the
            EMSL at Pacific Northwest National Laboratory, a multiprogram
            national laboratory, operated for the U.S. Department of Energy
            by Battelle under Contract Number DE-AC05-76RL01830. Support
            for this work was provided by the Department of Energy Office
            of Biological and Environmental Research, Office of Basic
            Energy Sciences, and the Office of Advanced Scientific Computing.


           Job information
           ---------------

    hostname        = ponder
    program         = nwchem
    date            = Sat Aug  3 15:28:30 2024

    compiled        = Sat_Apr_09_17:12:10_2022
    source          = /build/nwchem-f1f4gx/nwchem-7.0.2/build-openmpi
    nwchem branch   = 7.0.2
    nwchem revision = N/A
    ga revision     = 5.8.1
    use scalapack   = T
    input           = C1C2C1C2_mol_8_conformer_0.nw
    prefix          = C1C2C1C2_mol_8_conformer_0.
    data base       = ./C1C2C1C2_mol_8_conformer_0.db
    status          = startup
    nproc           =       40
    time left       =     -1s



           Memory information
           ------------------

    heap     =  131071998 doubles =   1000.0 Mbytes
    stack    =  131071995 doubles =   1000.0 Mbytes
    global   =  262144000 doubles =   2000.0 Mbytes (distinct from heap & stack)
    total    =  524287993 doubles =   4000.0 Mbytes
    verify   = yes
    hardfail = no 


           Directory information
           ---------------------

  0 permanent = .
  0 scratch   = .




                                NWChem Input Module
                                -------------------


                               Molecule conformer 0
                               --------------------

 Scaling coordinates for geometry "geometry" by  1.889725989
 (inverse scale =  0.529177249)

 C2V symmetry detected

          ------
          auto-z
          ------
  no constraints, skipping    0.0000000000000000     
  no constraints, skipping    0.0000000000000000     


                             Geometry "geometry" -> ""
                             -------------------------

 Output coordinates in angstroms (scale by  1.889725989 to convert to a.u.)

  No.       Tag          Charge          X              Y              Z
 ---- ---------------- ---------- -------------- -------------- --------------
    1 C                    6.0000     0.00000000    -1.25185631     0.21745724
    2 C                    6.0000     0.76844416     0.00000000    -0.14087460
    3 C                    6.0000    -0.76844416     0.00000000    -0.14087460
    4 C                    6.0000     0.00000000     1.25185631     0.21745724
    5 H                    1.0000     0.00000000    -1.48326025     1.30288272
    6 H                    1.0000     0.00000000    -2.03971308    -0.56577643
    7 H                    1.0000     1.11965690     0.00000000    -1.19660213
    8 H                    1.0000    -1.11965690     0.00000000    -1.19660213
    9 H                    1.0000     0.00000000     2.03971308    -0.56577643
   10 H                    1.0000     0.00000000     1.48326025     1.30288272

      Atomic Mass 
      ----------- 

      C                 12.000000
      H                  1.007825


 Effective nuclear repulsion energy (a.u.)     114.6845708180

            Nuclear Dipole moment (a.u.) 
            ----------------------------
        X                 Y               Z
 ---------------- ---------------- ----------------
     0.0000000000     0.0000000000     0.0000000000

      Symmetry information
      --------------------

 Group name             C2v       
 Group number             16
 Group order               4
 No. of unique centers     5

      Symmetry unique atoms

     1    2    5    6    7



                                Z-matrix (autoz)
                                -------- 

 Units are Angstrom for bonds and degrees for angles

      Type          Name      I     J     K     L     M      Value
      ----------- --------  ----- ----- ----- ----- ----- ----------
    1 Stretch                  1     2                       1.51197
    2 Stretch                  1     3                       1.51197
    3 Stretch                  1     5                       1.10982
    4 Stretch                  1     6                       1.11093
    5 Stretch                  2     3                       1.53689
    6 Stretch                  2     4                       1.51197
    7 Stretch                  2     7                       1.11261
    8 Stretch                  3     4                       1.51197
    9 Stretch                  3     8                       1.11261
   10 Stretch                  4     9                       1.11093
   11 Stretch                  4    10                       1.10982
   12 Bend                     1     2     3                59.45330
   13 Bend                     1     2     4               111.78029
   14 Bend                     1     2     7               112.66315
   15 Bend                     1     3     2                59.45330
   16 Bend                     1     3     4               111.78029
   17 Bend                     1     3     8               112.66315
   18 Bend                     2     1     3                61.09340
   19 Bend                     2     1     5               113.85500
   20 Bend                     2     1     6               114.84033
   21 Bend                     2     3     4                59.45330
   22 Bend                     2     3     8               108.40093
   23 Bend                     2     4     3                61.09340
   24 Bend                     2     4     9               114.84033
   25 Bend                     2     4    10               113.85500
   26 Bend                     3     1     5               113.85500
   27 Bend                     3     1     6               114.84033
   28 Bend                     3     2     4                59.45330
   29 Bend                     3     2     7               108.40093
   30 Bend                     3     4     9               114.84033
   31 Bend                     3     4    10               113.85500
   32 Bend                     4     2     7               112.66315
   33 Bend                     4     3     8               112.66315
   34 Bend                     5     1     6               122.79658
   35 Bend                     9     4    10               122.79658
   36 Torsion                  1     2     3     4         148.05348
   37 Torsion                  1     2     3     8        -105.97326
   38 Torsion                  1     2     4     3         -29.38816
   39 Torsion                  1     2     4     9        -135.24226
   40 Torsion                  1     2     4    10          75.73895
   41 Torsion                  1     3     2     4        -148.05348
   42 Torsion                  1     3     2     7         105.97326
   43 Torsion                  1     3     4     2          29.38816
   44 Torsion                  1     3     4     9         135.24226
   45 Torsion                  1     3     4    10         -75.73895
   46 Torsion                  2     1     3     4         -29.38816
   47 Torsion                  2     1     3     8          98.67252
   48 Torsion                  2     3     1     5         105.12710
   49 Torsion                  2     3     1     6        -105.85411
   50 Torsion                  2     3     4     9         105.85411
   51 Torsion                  2     3     4    10        -105.12710
   52 Torsion                  2     4     3     8         -98.67252
   53 Torsion                  3     1     2     4          29.38816
   54 Torsion                  3     1     2     7         -98.67252
   55 Torsion                  3     2     1     5        -105.12710
   56 Torsion                  3     2     1     6         105.85411
   57 Torsion                  3     2     4     9        -105.85411
   58 Torsion                  3     2     4    10         105.12710
   59 Torsion                  3     4     2     7          98.67252
   60 Torsion                  4     2     1     5         -75.73895
   61 Torsion                  4     2     1     6         135.24226
   62 Torsion                  4     2     3     8         105.97326
   63 Torsion                  4     3     1     5          75.73895
   64 Torsion                  4     3     1     6        -135.24226
   65 Torsion                  4     3     2     7        -105.97326
   66 Torsion                  5     1     2     7         156.20037
   67 Torsion                  5     1     3     8        -156.20037
   68 Torsion                  6     1     2     7           7.18158
   69 Torsion                  6     1     3     8          -7.18158
   70 Torsion                  7     2     3     8          -0.00000
   71 Torsion                  7     2     4     9          -7.18158
   72 Torsion                  7     2     4    10        -156.20037
   73 Torsion                  8     3     4     9           7.18158
   74 Torsion                  8     3     4    10         156.20037


            XYZ format geometry
            -------------------
    10
 geometry
 C                     0.00000000    -1.25185631     0.21745724
 C                     0.76844416     0.00000000    -0.14087460
 C                    -0.76844416     0.00000000    -0.14087460
 C                     0.00000000     1.25185631     0.21745724
 H                     0.00000000    -1.48326025     1.30288272
 H                     0.00000000    -2.03971308    -0.56577643
 H                     1.11965690     0.00000000    -1.19660213
 H                    -1.11965690     0.00000000    -1.19660213
 H                     0.00000000     2.03971308    -0.56577643
 H                     0.00000000     1.48326025     1.30288272

 ==============================================================================
                                internuclear distances
 ------------------------------------------------------------------------------
       center one      |      center two      | atomic units |  angstroms
 ------------------------------------------------------------------------------
    2 C                |   1 C                |     2.85721  |     1.51197
    3 C                |   1 C                |     2.85721  |     1.51197
    3 C                |   2 C                |     2.90430  |     1.53689
    4 C                |   2 C                |     2.85721  |     1.51197
    4 C                |   3 C                |     2.85721  |     1.51197
    5 H                |   1 C                |     2.09725  |     1.10982
    6 H                |   1 C                |     2.09936  |     1.11093
    7 H                |   2 C                |     2.10254  |     1.11261
    8 H                |   3 C                |     2.10254  |     1.11261
    9 H                |   4 C                |     2.09936  |     1.11093
   10 H                |   4 C                |     2.09725  |     1.10982
 ------------------------------------------------------------------------------
                         number of included internuclear distances:         11
 ==============================================================================



 ==============================================================================
                                 internuclear angles
 ------------------------------------------------------------------------------
        center 1       |       center 2       |       center 3       |  degrees
 ------------------------------------------------------------------------------
    2 C                |   1 C                |   3 C                |    61.09
    2 C                |   1 C                |   5 H                |   113.85
    2 C                |   1 C                |   6 H                |   114.84
    3 C                |   1 C                |   5 H                |   113.85
    3 C                |   1 C                |   6 H                |   114.84
    5 H                |   1 C                |   6 H                |   122.80
    2 C                |   1 C                |   3 C                |    61.09
    1 C                |   2 C                |   4 C                |   111.78
    1 C                |   2 C                |   7 H                |   112.66
    2 C                |   4 C                |   3 C                |    61.09
    3 C                |   2 C                |   7 H                |   108.40
    4 C                |   2 C                |   7 H                |   112.66
    3 C                |   1 C                |   2 C                |    61.09
    1 C                |   3 C                |   4 C                |   111.78
    1 C                |   3 C                |   8 H                |   112.66
    3 C                |   4 C                |   2 C                |    61.09
    2 C                |   3 C                |   8 H                |   108.40
    4 C                |   3 C                |   8 H                |   112.66
    2 C                |   4 C                |   3 C                |    61.09
    2 C                |   4 C                |   9 H                |   114.84
    2 C                |   4 C                |  10 H                |   113.85
    3 C                |   4 C                |   9 H                |   114.84
    3 C                |   4 C                |  10 H                |   113.85
    9 H                |   4 C                |  10 H                |   122.80
 ------------------------------------------------------------------------------
                            number of included internuclear angles:         24
 ==============================================================================





 Summary of "ao basis" -> "" (spherical)
 ------------------------------------------------------------------------------
       Tag                 Description            Shells   Functions and Types
 ---------------- ------------------------------  ------  ---------------------
 *                           6-311G                   on all atoms 




                           NWChem Geometry Optimization
                           ----------------------------




                               Molecule conformer 0


  no constraints, skipping    0.0000000000000000     
 maximum gradient threshold         (gmax) =   0.000450
 rms gradient threshold             (grms) =   0.000300
 maximum cartesian step threshold   (xmax) =   0.001800
 rms cartesian step threshold       (xrms) =   0.001200
 fixed trust radius                (trust) =   0.300000
 maximum step size to saddle      (sadstp) =   0.100000
 energy precision                  (eprec) =   5.0D-06
 maximum number of steps          (nptopt) =  500
 initial hessian option           (inhess) =    0
 line search option               (linopt) =    1
 hessian update option            (modupd) =    1
 saddle point option              (modsad) =    0
 initial eigen-mode to follow     (moddir) =    0
 initial variable to follow       (vardir) =    0
 follow first negative mode     (firstneg) =    T
 apply conjugacy                    (opcg) =    F
 source of zmatrix                         =   autoz   


          -------------------
          Energy Minimization
          -------------------


 Names of Z-matrix variables 
    1              2              3              4              5         
    6              7              8              9             10         
   11             12             13             14             15         
   16             17             18             19             20         
   21             22             23             24             25         
   26             27             28             29             30         
   31             32             33             34             35         
   36             37             38             39             40         
   41             42             43             44             45         
   46             47             48             49             50         
   51             52             53             54             55         
   56             57             58             59             60         
   61             62             63             64             65         
   66             67             68             69             70         
   71             72             73             74         

 Variables with the same non-blank name are constrained to be equal


 Using diagonal initial Hessian 
 Scaling for Hessian diagonals: bonds = 1.00  angles = 0.25  torsions = 0.10

          --------
          Step   0
          --------


                         Geometry "geometry" -> "geometry"
                         ---------------------------------

 Output coordinates in angstroms (scale by  1.889725989 to convert to a.u.)

  No.       Tag          Charge          X              Y              Z
 ---- ---------------- ---------- -------------- -------------- --------------
    1 C                    6.0000     0.00000000    -1.25185631     0.21745724
    2 C                    6.0000     0.76844416     0.00000000    -0.14087460
    3 C                    6.0000    -0.76844416     0.00000000    -0.14087460
    4 C                    6.0000     0.00000000     1.25185631     0.21745724
    5 H                    1.0000     0.00000000    -1.48326025     1.30288272
    6 H                    1.0000     0.00000000    -2.03971308    -0.56577643
    7 H                    1.0000     1.11965690     0.00000000    -1.19660213
    8 H                    1.0000    -1.11965690     0.00000000    -1.19660213
    9 H                    1.0000     0.00000000     2.03971308    -0.56577643
   10 H                    1.0000     0.00000000     1.48326025     1.30288272

      Atomic Mass 
      ----------- 

      C                 12.000000
      H                  1.007825


 Effective nuclear repulsion energy (a.u.)     114.6845708180

            Nuclear Dipole moment (a.u.) 
            ----------------------------
        X                 Y               Z
 ---------------- ---------------- ----------------
     0.0000000000     0.0000000000     0.0000000000

      Symmetry information
      --------------------

 Group name             C2v       
 Group number             16
 Group order               4
 No. of unique centers     5

      Symmetry unique atoms

     1    2    5    6    7


                                 NWChem DFT Module
                                 -----------------


                               Molecule conformer 0


                      Basis "ao basis" -> "ao basis" (spherical)
                      -----
  C (Carbon)
  ----------
            Exponent  Coefficients 
       -------------- ---------------------------------------------------------
  1 S  4.56324000E+03  0.001967
  1 S  6.82024000E+02  0.015231
  1 S  1.54973000E+02  0.076127
  1 S  4.44553000E+01  0.260801
  1 S  1.30290000E+01  0.616462
  1 S  1.82773000E+00  0.221006

  2 S  2.09642000E+01  0.114660
  2 S  4.80331000E+00  0.919999
  2 S  1.45933000E+00 -0.003031

  3 P  2.09642000E+01  0.040249
  3 P  4.80331000E+00  0.237594
  3 P  1.45933000E+00  0.815854

  4 S  4.83456000E-01  1.000000

  5 P  4.83456000E-01  1.000000

  6 S  1.45585000E-01  1.000000

  7 P  1.45585000E-01  1.000000

  H (Hydrogen)
  ------------
            Exponent  Coefficients 
       -------------- ---------------------------------------------------------
  1 S  3.38650000E+01  0.025494
  1 S  5.09479000E+00  0.190373
  1 S  1.15879000E+00  0.852161

  2 S  3.25840000E-01  1.000000

  3 S  1.02741000E-01  1.000000



 Summary of "ao basis" -> "ao basis" (spherical)
 ------------------------------------------------------------------------------
       Tag                 Description            Shells   Functions and Types
 ---------------- ------------------------------  ------  ---------------------
 C                           6-311G                  7       13   4s3p
 H                           6-311G                  3        3   3s




 Summary of "ao basis" -> "ao basis" (spherical)
 ------------------------------------------------------------------------------
       Tag                 Description            Shells   Functions and Types
 ---------------- ------------------------------  ------  ---------------------
 C                           6-311G                  7       13   4s3p
 H                           6-311G                  3        3   3s


      Symmetry analysis of basis
      --------------------------

        a1         29
        a2          6
        b1         16
        b2         19

  Caching 1-el integrals 

            General Information
            -------------------
          SCF calculation type: DFT
          Wavefunction type:  closed shell.
          No. of atoms     :    10
          No. of electrons :    30
           Alpha electrons :    15
            Beta electrons :    15
          Charge           :     0
          Spin multiplicity:     1
          Use of symmetry is: on ; symmetry adaption is: on 
          Maximum number of iterations: ***
          This is a Direct SCF calculation.
          AO basis - number of functions:    70
                     number of shells:    46
          Convergence on energy requested:  1.00D-06
          Convergence on density requested:  1.00D-05
          Convergence on gradient requested:  5.00D-04

              XC Information
              --------------
                         B3LYP Method XC Potential
                     Hartree-Fock (Exact) Exchange  0.200          
                        Slater Exchange Functional  0.800 local    
                    Becke 1988 Exchange Functional  0.720 non-local
              Lee-Yang-Parr Correlation Functional  0.810          
                  VWN I RPA Correlation Functional  0.190 local    

             Grid Information
             ----------------
          Grid used for XC integration:  fine      
          Radial quadrature: Mura-Knowles        
          Angular quadrature: Lebedev. 
          Tag              B.-S. Rad. Rad. Pts. Rad. Cut. Ang. Pts.
          ---              ---------- --------- --------- ---------
          C                   0.70       70          10.0       590
          H                   0.35       60          11.0       590
          Grid pruning is: on 
          Number of quadrature shells:   320
          Spatial weights used:  Erf1

          Convergence Information
          -----------------------
          Convergence aids based upon iterative change in 
          total energy or number of iterations. 
          Levelshifting, if invoked, occurs when the 
          HOMO/LUMO gap drops below (HL_TOL):  1.00D-02
          DIIS, if invoked, will attempt to extrapolate 
          using up to (NFOCK): 10 stored Fock matrices.

                    Damping( 0%)  Levelshifting(0.5)       DIIS
                  --------------- ------------------- ---------------
          dE  on:    start            ASAP                start   
          dE off:    2 iters        *** iters           *** iters 


      Screening Tolerance Information
      -------------------------------
          Density screening/tol_rho:  1.00D-10
          AO Gaussian exp screening on grid/accAOfunc:  14
          CD Gaussian exp screening on grid/accCDfunc:  20
          XC Gaussian exp screening on grid/accXCfunc:  20
          Schwarz screening/accCoul:  1.00D-08

          Performing ZORA calculations
          ----------------------------


      Superposition of Atomic Density Guess
      -------------------------------------

 Sum of atomic energies:        -153.67306699

 Read atomic ZORA corrections from ./C1C2C1C2_mol_8_conformer_0.zora_sf

 dft_zora_read: failed to open./C1C2C1C2_mol_8_conformer_0.zora_sf
 Forcing recalculation of ZORA corrections
       Generating atomic ZORA corrections
       ----------------------------------

 In dft_scf:: zora:Knucl= F

 Grid_pts file          = ./C1C2C1C2_mol_8_conformer_0.gridpts.00
 Record size in doubles =  12289        No. of grid_pts per rec  =   3070
 Max. records in memory =      3        Max. recs in file   =     13547

 Grid integrated density:      29.999985332499
 Requested integration accuracy:   0.10E-06

 Wrote atomic ZORA corrections to ./C1C2C1C2_mol_8_conformer_0.zora_sf


      Superposition of Atomic Density Guess
      -------------------------------------

 Sum of atomic energies:        -153.67306699

      Non-variational initial energy
      ------------------------------

 Total energy =    -156.684565
 1-e energy   =    -431.544729
 2-e energy   =     160.175593
 HOMO         =      -0.249849
 LUMO         =       0.040445


      Symmetry analysis of molecular orbitals - initial
      -------------------------------------------------

  Numbering of irreducible representations: 

     1 a1          2 a2          3 b1          4 b2      

  Orbital symmetries:

     1 a1          2 b2          3 a1          4 b1          5 a1      
     6 b2          7 b1          8 a1          9 a1         10 b2      
    11 a1         12 b2         13 a2         14 b1         15 a1      
    16 b1         17 a1         18 a1         19 b2         20 b1      
    21 a1         22 b2         23 a2         24 b1         25 a1      

   Time after variat. SCF:      6.0
   Time prior to 1st pass:      6.0
 Grid integrated density:      29.999991405050
 Requested integration accuracy:   0.10E-06

           Memory utilization after 1st SCF pass: 
           Heap Space remaining (MW):      131.03           131029062
          Stack Space remaining (MW):      131.06           131061508

   convergence    iter        energy       DeltaE   RMS-Dens  Diis-err    time
 ---------------- ----- ----------------- --------- --------- ---------  ------
 d= 0,ls=0.0,diis     1   -155.9267231708 -2.71D+02  1.44D-02  5.78D-01     8.3
 Grid integrated density:      29.999992475088
 Requested integration accuracy:   0.10E-06
 d= 0,ls=0.0,diis     2   -155.9699293704 -4.32D-02  8.15D-03  6.91D-02    10.2
 Grid integrated density:      29.999992561979
 Requested integration accuracy:   0.10E-06
 d= 0,ls=0.0,diis     3   -155.9733922145 -3.46D-03  2.21D-03  4.34D-02    11.5
 Grid integrated density:      29.999992594452
 Requested integration accuracy:   0.10E-06
 d= 0,ls=0.0,diis     4   -155.9788562000 -5.46D-03  3.99D-04  4.06D-04    13.4
 Grid integrated density:      29.999992617779
 Requested integration accuracy:   0.10E-06
 d= 0,ls=0.0,diis     5   -155.9788972665 -4.11D-05  1.61D-04  7.44D-05    14.6
 Grid integrated density:      29.999992612717
 Requested integration accuracy:   0.10E-06
  Resetting Diis
 d= 0,ls=0.0,diis     6   -155.9789072225 -9.96D-06  4.71D-05  1.37D-06    16.6
 Grid integrated density:      29.999992612093
 Requested integration accuracy:   0.10E-06
 d= 0,ls=0.0,diis     7   -155.9789074433 -2.21D-07  4.37D-06  1.49D-08    18.8
(nogshift,skip_gshiftAOev,done_Fji)=( 1,F,F)


         Total DFT energy =     -155.978907443304
      One electron energy =     -434.800832030440
           Coulomb energy =      188.030647821826
    Exchange-Corr. energy =      -23.893294052647
 Nuclear repulsion energy =      114.684570817957

       Scaling correction =        0.035100368754

 Numeric. integr. density =       29.999992612093

     Total iterative time =     12.9s



                  Occupations of the irreducible representations
                  ----------------------------------------------

                     irrep           alpha         beta
                     --------     --------     --------
                     a1                7.0          7.0
                     a2                1.0          1.0
                     b1                3.0          3.0
                     b2                4.0          4.0


 center of mass
 --------------
 x =   0.00000000 y =   0.00000000 z =   0.03188068

 moments of inertia (a.u.)
 ------------------
         210.623911024436           0.000000000000           0.000000000000
           0.000000000000          90.161387096654           0.000000000000
           0.000000000000           0.000000000000         239.729191604514

            General Information
            -------------------
          SCF calculation type: DFT
          Wavefunction type:  closed shell.
          No. of atoms     :    10
          No. of electrons :    30
           Alpha electrons :    15
            Beta electrons :    15
          Charge           :     0
          Spin multiplicity:     1
          Use of symmetry is: on ; symmetry adaption is: on 
          Maximum number of iterations: ***
          This is a Direct SCF calculation.
          AO basis - number of functions:    70
                     number of shells:    46
          Convergence on energy requested:  1.00D-06
          Convergence on density requested:  1.00D-05
          Convergence on gradient requested:  5.00D-04

              XC Information
              --------------
                         B3LYP Method XC Potential
                     Hartree-Fock (Exact) Exchange  0.200          
                        Slater Exchange Functional  0.800 local    
                    Becke 1988 Exchange Functional  0.720 non-local
              Lee-Yang-Parr Correlation Functional  0.810          
                  VWN I RPA Correlation Functional  0.190 local    

             Grid Information
             ----------------
          Grid used for XC integration:  fine      
          Radial quadrature: Mura-Knowles        
          Angular quadrature: Lebedev. 
          Tag              B.-S. Rad. Rad. Pts. Rad. Cut. Ang. Pts.
          ---              ---------- --------- --------- ---------
          C                   0.70       70          10.0       590
          H                   0.35       60          11.0       590
          Grid pruning is: on 
          Number of quadrature shells:   320
          Spatial weights used:  Erf1

          Convergence Information
          -----------------------
          Convergence aids based upon iterative change in 
          total energy or number of iterations. 
          Levelshifting, if invoked, occurs when the 
          HOMO/LUMO gap drops below (HL_TOL):  1.00D-02
          DIIS, if invoked, will attempt to extrapolate 
          using up to (NFOCK): 10 stored Fock matrices.

                    Damping( 0%)  Levelshifting(0.5)       DIIS
                  --------------- ------------------- ---------------
          dE  on:    start            ASAP                start   
          dE off:    2 iters        *** iters           *** iters 


      Screening Tolerance Information
      -------------------------------
          Density screening/tol_rho:  1.00D-10
          AO Gaussian exp screening on grid/accAOfunc:  14
          CD Gaussian exp screening on grid/accCDfunc:  20
          XC Gaussian exp screening on grid/accXCfunc:  20
          Schwarz screening/accCoul:  1.00D-08



                            NWChem DFT Gradient Module
                            --------------------------


                               Molecule conformer 0



  charge          =   0.00
  wavefunction    = closed shell

  Using symmetry


                         DFT ENERGY GRADIENTS

    atom               coordinates                        gradient
                 x          y          z           x          y          z
   1 C       0.000000  -2.365665   0.410935    0.000000  -0.026624  -0.044381
   2 C       1.452149   0.000000  -0.266214   -0.046517   0.000000   0.066143
   3 C      -1.452149   0.000000  -0.266214    0.046517   0.000000   0.066143
   4 C       0.000000   2.365665   0.410935   -0.000000   0.026624  -0.044381
   5 H       0.000000  -2.802955   2.462091    0.000000   0.012184   0.019845
   6 H       0.000000  -3.854499  -1.069162    0.000000  -0.009447  -0.020892
   7 H       2.115845   0.000000  -2.261250   -0.008587   0.000000  -0.020715
   8 H      -2.115845   0.000000  -2.261250    0.008587   0.000000  -0.020715
   9 H       0.000000   3.854499  -1.069162    0.000000   0.009447  -0.020892
  10 H       0.000000   2.802955   2.462091    0.000000  -0.012184   0.019845

                 ----------------------------------------
                 |  Time  |  1-e(secs)   |  2-e(secs)   |
                 ----------------------------------------
                 |  CPU   |       0.00   |       0.03   |
                 ----------------------------------------
                 |  WALL  |       0.00   |       0.03   |
                 ----------------------------------------
  no constraints, skipping    0.0000000000000000     

@ Step       Energy      Delta E   Gmax     Grms     Xrms     Xmax   Walltime
@ ---- ---------------- -------- -------- -------- -------- -------- --------
@    0    -155.97890744  0.0D+00  0.02143  0.00708  0.00000  0.00000     20.4
                                                                    



                                Z-matrix (autoz)
                                -------- 

 Units are Angstrom for bonds and degrees for angles

      Type          Name      I     J     K     L     M      Value     Gradient
      ----------- --------  ----- ----- ----- ----- ----- ---------- ----------
    1 Stretch                  1     2                       1.51197   -0.00497
    2 Stretch                  1     3                       1.51197   -0.00497
    3 Stretch                  1     5                       1.10982    0.01687
    4 Stretch                  1     6                       1.11093    0.02143
    5 Stretch                  2     3                       1.53689   -0.01781
    6 Stretch                  2     4                       1.51197   -0.00497
    7 Stretch                  2     7                       1.11261    0.01695
    8 Stretch                  3     4                       1.51197   -0.00497
    9 Stretch                  3     8                       1.11261    0.01695
   10 Stretch                  4     9                       1.11093    0.02143
   11 Stretch                  4    10                       1.10982    0.01687
   12 Bend                     1     2     3                59.45330    0.00490
   13 Bend                     1     2     4               111.78029    0.01173
   14 Bend                     1     2     7               112.66315   -0.00584
   15 Bend                     1     3     2                59.45330    0.00490
   16 Bend                     1     3     4               111.78029    0.01173
   17 Bend                     1     3     8               112.66315   -0.00584
   18 Bend                     2     1     3                61.09340   -0.00979
   19 Bend                     2     1     5               113.85500   -0.00154
   20 Bend                     2     1     6               114.84033    0.00185
   21 Bend                     2     3     4                59.45330    0.00490
   22 Bend                     2     3     8               108.40093   -0.00426
   23 Bend                     2     4     3                61.09340   -0.00979
   24 Bend                     2     4     9               114.84033    0.00185
   25 Bend                     2     4    10               113.85500   -0.00154
   26 Bend                     3     1     5               113.85500   -0.00154
   27 Bend                     3     1     6               114.84033    0.00185
   28 Bend                     3     2     4                59.45330    0.00490
   29 Bend                     3     2     7               108.40093   -0.00426
   30 Bend                     3     4     9               114.84033    0.00185
   31 Bend                     3     4    10               113.85500   -0.00154
   32 Bend                     4     2     7               112.66315   -0.00584
   33 Bend                     4     3     8               112.66315   -0.00584
   34 Bend                     5     1     6               122.79658    0.00277
   35 Bend                     9     4    10               122.79658    0.00277
   36 Torsion                  1     2     3     4         148.05348    0.00757
   37 Torsion                  1     2     3     8        -105.97326    0.00378
   38 Torsion                  1     2     4     3         -29.38816    0.00257
   39 Torsion                  1     2     4     9        -135.24226    0.00437
   40 Torsion                  1     2     4    10          75.73895   -0.00158
   41 Torsion                  1     3     2     4        -148.05348   -0.00757
   42 Torsion                  1     3     2     7         105.97326   -0.00378
   43 Torsion                  1     3     4     2          29.38816   -0.00257
   44 Torsion                  1     3     4     9         135.24226   -0.00437
   45 Torsion                  1     3     4    10         -75.73895    0.00158
   46 Torsion                  2     1     3     4         -29.38816    0.00257
   47 Torsion                  2     1     3     8          98.67252   -0.00040
   48 Torsion                  2     3     1     5         105.12710   -0.00415
   49 Torsion                  2     3     1     6        -105.85411    0.00180
   50 Torsion                  2     3     4     9         105.85411   -0.00180
   51 Torsion                  2     3     4    10        -105.12710    0.00415
   52 Torsion                  2     4     3     8         -98.67252    0.00040
   53 Torsion                  3     1     2     4          29.38816   -0.00257
   54 Torsion                  3     1     2     7         -98.67252    0.00040
   55 Torsion                  3     2     1     5        -105.12710    0.00415
   56 Torsion                  3     2     1     6         105.85411   -0.00180
   57 Torsion                  3     2     4     9        -105.85411    0.00180
   58 Torsion                  3     2     4    10         105.12710   -0.00415
   59 Torsion                  3     4     2     7          98.67252   -0.00040
   60 Torsion                  4     2     1     5         -75.73895    0.00158
   61 Torsion                  4     2     1     6         135.24226   -0.00437
   62 Torsion                  4     2     3     8         105.97326   -0.00378
   63 Torsion                  4     3     1     5          75.73895   -0.00158
   64 Torsion                  4     3     1     6        -135.24226    0.00437
   65 Torsion                  4     3     2     7        -105.97326    0.00378
   66 Torsion                  5     1     2     7         156.20037    0.00455
   67 Torsion                  5     1     3     8        -156.20037   -0.00455
   68 Torsion                  6     1     2     7           7.18158   -0.00140
   69 Torsion                  6     1     3     8          -7.18158    0.00140
   70 Torsion                  7     2     3     8          -0.00000    0.00000
   71 Torsion                  7     2     4     9          -7.18158    0.00140
   72 Torsion                  7     2     4    10        -156.20037   -0.00455
   73 Torsion                  8     3     4     9           7.18158   -0.00140
   74 Torsion                  8     3     4    10         156.20037    0.00455

 Restricting large step in mode    7 eval= 3.6D-02 step= 4.3D-01 new= 3.0D-01
 Restricting large step in mode   12 eval= 4.3D-02 step=-3.5D-01 new=-3.0D-01
  no constraints, skipping    0.0000000000000000     
  no constraints, skipping    0.0000000000000000     
  no constraints, skipping    0.0000000000000000     
  no constraints, skipping    0.0000000000000000     
  no constraints, skipping    0.0000000000000000     
  no constraints, skipping    0.0000000000000000     
  no constraints, skipping    0.0000000000000000     
  no constraints, skipping    0.0000000000000000     

                                 NWChem DFT Module
                                 -----------------


                               Molecule conformer 0




 Summary of "ao basis" -> "ao basis" (spherical)
 ------------------------------------------------------------------------------
       Tag                 Description            Shells   Functions and Types
 ---------------- ------------------------------  ------  ---------------------
 C                           6-311G                  7       13   4s3p
 H                           6-311G                  3        3   3s


      Symmetry analysis of basis
      --------------------------

        a1         29
        a2          6
        b1         16
        b2         19

  Caching 1-el integrals 

            General Information
            -------------------
          SCF calculation type: DFT
          Wavefunction type:  closed shell.
          No. of atoms     :    10
          No. of electrons :    30
           Alpha electrons :    15
            Beta electrons :    15
          Charge           :     0
          Spin multiplicity:     1
          Use of symmetry is: on ; symmetry adaption is: on 
          Maximum number of iterations: ***
          This is a Direct SCF calculation.
          AO basis - number of functions:    70
                     number of shells:    46
          Convergence on energy requested:  1.00D-06
          Convergence on density requested:  1.00D-05
          Convergence on gradient requested:  5.00D-04

              XC Information
              --------------
                         B3LYP Method XC Potential
                     Hartree-Fock (Exact) Exchange  0.200          
                        Slater Exchange Functional  0.800 local    
                    Becke 1988 Exchange Functional  0.720 non-local
              Lee-Yang-Parr Correlation Functional  0.810          
                  VWN I RPA Correlation Functional  0.190 local    

             Grid Information
             ----------------
          Grid used for XC integration:  fine      
          Radial quadrature: Mura-Knowles        
          Angular quadrature: Lebedev. 
          Tag              B.-S. Rad. Rad. Pts. Rad. Cut. Ang. Pts.
          ---              ---------- --------- --------- ---------
          C                   0.70       70          10.0       590
          H                   0.35       60          11.0       590
          Grid pruning is: on 
          Number of quadrature shells:   320
          Spatial weights used:  Erf1

          Convergence Information
          -----------------------
          Convergence aids based upon iterative change in 
          total energy or number of iterations. 
          Levelshifting, if invoked, occurs when the 
          HOMO/LUMO gap drops below (HL_TOL):  1.00D-02
          DIIS, if invoked, will attempt to extrapolate 
          using up to (NFOCK): 10 stored Fock matrices.

                    Damping( 0%)  Levelshifting(0.5)       DIIS
                  --------------- ------------------- ---------------
          dE  on:    start            ASAP                start   
          dE off:    2 iters        *** iters           *** iters 


      Screening Tolerance Information
      -------------------------------
          Density screening/tol_rho:  1.00D-10
          AO Gaussian exp screening on grid/accAOfunc:  14
          CD Gaussian exp screening on grid/accCDfunc:  20
          XC Gaussian exp screening on grid/accXCfunc:  20
          Schwarz screening/accCoul:  1.00D-08

          Performing ZORA calculations
          ----------------------------


      Superposition of Atomic Density Guess
      -------------------------------------

 Sum of atomic energies:        -153.67306699

 Read atomic ZORA corrections from ./C1C2C1C2_mol_8_conformer_0.zora_sf

 Forcing recalculation of ZORA corrections
       Generating atomic ZORA corrections
       ----------------------------------

 In dft_scf:: zora:Knucl= F

 Grid_pts file          = ./C1C2C1C2_mol_8_conformer_0.gridpts.00
 Record size in doubles =  12289        No. of grid_pts per rec  =   3070
 Max. records in memory =      3        Max. recs in file   =     13547

 Grid integrated density:      29.999992839384
 Requested integration accuracy:   0.10E-06

 Wrote atomic ZORA corrections to ./C1C2C1C2_mol_8_conformer_0.zora_sf


 Loading old vectors from job with title :

Molecule conformer 0


      Symmetry analysis of molecular orbitals - initial
      -------------------------------------------------

  Numbering of irreducible representations: 

     1 a1          2 a2          3 b1          4 b2      

  Orbital symmetries:

     1 b2          2 a1          3 a1          4 b1          5 a1      
     6 b2          7 a1          8 b1          9 a1         10 b2      
    11 b2         12 a1         13 a2         14 b1         15 a1      
    16 a1         17 b1         18 a1         19 b2         20 b1      
    21 b2         22 a1         23 a2         24 b1         25 a1      

   Time after variat. SCF:     28.2
   Time prior to 1st pass:     28.2

           Memory utilization after 1st SCF pass: 
           Heap Space remaining (MW):      131.03           131029062
          Stack Space remaining (MW):      131.06           131061508

   convergence    iter        energy       DeltaE   RMS-Dens  Diis-err    time
 ---------------- ----- ----------------- --------- --------- ---------  ------
 d= 0,ls=0.0,diis     1   -155.9945695911 -2.71D+02  3.38D-03  2.05D-02    30.3
 d= 0,ls=0.0,diis     2   -155.9979067443 -3.34D-03  7.87D-04  1.97D-03    32.7
 d= 0,ls=0.0,diis     3   -155.9979833852 -7.66D-05  3.88D-04  1.51D-03    34.7
 d= 0,ls=0.0,diis     4   -155.9981754922 -1.92D-04  4.14D-05  7.01D-06    37.4
 d= 0,ls=0.0,diis     5   -155.9981760156 -5.23D-07  2.29D-05  2.71D-06    39.0
 d= 0,ls=0.0,diis     6   -155.9981763608 -3.45D-07  5.43D-06  3.95D-08    40.4
(nogshift,skip_gshiftAOev,done_Fji)=( 1,F,F)


         Total DFT energy =     -155.998176360778
      One electron energy =     -435.544033261249
           Coulomb energy =      188.455806935060
    Exchange-Corr. energy =      -23.946396162088
 Nuclear repulsion energy =      115.036446127499

       Scaling correction =        0.035077375595

 Numeric. integr. density =       29.999997197805

     Total iterative time =     12.3s



                  Occupations of the irreducible representations
                  ----------------------------------------------

                     irrep           alpha         beta
                     --------     --------     --------
                     a1                7.0          7.0
                     a2                1.0          1.0
                     b1                3.0          3.0
                     b2                4.0          4.0


 center of mass
 --------------
 x =   0.00000000 y =  -0.00000000 z =   0.00504358

 moments of inertia (a.u.)
 ------------------
         202.551972986460           0.000000000000           0.000000000000
           0.000000000000          95.391878445379           0.000000000000
           0.000000000000           0.000000000000         235.876868394840
 Line search: 
     step= 1.00 grad=-2.6D-02 hess= 7.1D-03 energy=   -155.998176 mode=downhill
 new step= 1.87                   predicted energy=   -156.003458
  no constraints, skipping    0.0000000000000000     
  no constraints, skipping    0.0000000000000000     
  no constraints, skipping    0.0000000000000000     
  no constraints, skipping    0.0000000000000000     
  no constraints, skipping    0.0000000000000000     
  no constraints, skipping    0.0000000000000000     
  no constraints, skipping    0.0000000000000000     
  no constraints, skipping    0.0000000000000000     

          --------
          Step   1
          --------


                         Geometry "geometry" -> "geometry"
                         ---------------------------------

 Output coordinates in angstroms (scale by  1.889725989 to convert to a.u.)

  No.       Tag          Charge          X              Y              Z
 ---- ---------------- ---------- -------------- -------------- --------------
    1 C                    6.0000     0.00000000    -1.18878212     0.22570688
    2 C                    6.0000     0.82187736     0.00000000    -0.21494720
    3 C                    6.0000    -0.82187736     0.00000000    -0.21494720
    4 C                    6.0000     0.00000000     1.18878212     0.22570688
    5 H                    1.0000     0.00000000    -1.41335538     1.26150823
    6 H                    1.0000     0.00000000    -1.98864360    -0.45041810
    7 H                    1.0000     1.20716858     0.00000000    -1.20476302
    8 H                    1.0000    -1.20716858     0.00000000    -1.20476302
    9 H                    1.0000     0.00000000     1.98864360    -0.45041810
   10 H                    1.0000     0.00000000     1.41335538     1.26150823

      Atomic Mass 
      ----------- 

      C                 12.000000
      H                  1.007825


 Effective nuclear repulsion energy (a.u.)     115.4182454135

            Nuclear Dipole moment (a.u.) 
            ----------------------------
        X                 Y               Z
 ---------------- ---------------- ----------------
     0.0000000000     0.0000000000    -1.2438735477

      Symmetry information
      --------------------

 Group name             C2v       
 Group number             16
 Group order               4
 No. of unique centers     5

      Symmetry unique atoms

     1    2    5    6    7


                                 NWChem DFT Module
                                 -----------------


                               Molecule conformer 0




 Summary of "ao basis" -> "ao basis" (spherical)
 ------------------------------------------------------------------------------
       Tag                 Description            Shells   Functions and Types
 ---------------- ------------------------------  ------  ---------------------
 C                           6-311G                  7       13   4s3p
 H                           6-311G                  3        3   3s


      Symmetry analysis of basis
      --------------------------

        a1         29
        a2          6
        b1         16
        b2         19

  Caching 1-el integrals 

            General Information
            -------------------
          SCF calculation type: DFT
          Wavefunction type:  closed shell.
          No. of atoms     :    10
          No. of electrons :    30
           Alpha electrons :    15
            Beta electrons :    15
          Charge           :     0
          Spin multiplicity:     1
          Use of symmetry is: on ; symmetry adaption is: on 
          Maximum number of iterations: ***
          This is a Direct SCF calculation.
          AO basis - number of functions:    70
                     number of shells:    46
          Convergence on energy requested:  1.00D-06
          Convergence on density requested:  1.00D-05
          Convergence on gradient requested:  5.00D-04

              XC Information
              --------------
                         B3LYP Method XC Potential
                     Hartree-Fock (Exact) Exchange  0.200          
                        Slater Exchange Functional  0.800 local    
                    Becke 1988 Exchange Functional  0.720 non-local
              Lee-Yang-Parr Correlation Functional  0.810          
                  VWN I RPA Correlation Functional  0.190 local    

             Grid Information
             ----------------
          Grid used for XC integration:  fine      
          Radial quadrature: Mura-Knowles        
          Angular quadrature: Lebedev. 
          Tag              B.-S. Rad. Rad. Pts. Rad. Cut. Ang. Pts.
          ---              ---------- --------- --------- ---------
          C                   0.70       70          10.0       590
          H                   0.35       60          11.0       590
          Grid pruning is: on 
          Number of quadrature shells:   320
          Spatial weights used:  Erf1

          Convergence Information
          -----------------------
          Convergence aids based upon iterative change in 
          total energy or number of iterations. 
          Levelshifting, if invoked, occurs when the 
          HOMO/LUMO gap drops below (HL_TOL):  1.00D-02
          DIIS, if invoked, will attempt to extrapolate 
          using up to (NFOCK): 10 stored Fock matrices.

                    Damping( 0%)  Levelshifting(0.5)       DIIS
                  --------------- ------------------- ---------------
          dE  on:    start            ASAP                start   
          dE off:    2 iters        *** iters           *** iters 


      Screening Tolerance Information
      -------------------------------
          Density screening/tol_rho:  1.00D-10
          AO Gaussian exp screening on grid/accAOfunc:  14
          CD Gaussian exp screening on grid/accCDfunc:  20
          XC Gaussian exp screening on grid/accXCfunc:  20
          Schwarz screening/accCoul:  1.00D-08

          Performing ZORA calculations
          ----------------------------


      Superposition of Atomic Density Guess
      -------------------------------------

 Sum of atomic energies:        -153.67306699

 Read atomic ZORA corrections from ./C1C2C1C2_mol_8_conformer_0.zora_sf

 Forcing recalculation of ZORA corrections
       Generating atomic ZORA corrections
       ----------------------------------

 In dft_scf:: zora:Knucl= F

 Grid_pts file          = ./C1C2C1C2_mol_8_conformer_0.gridpts.00
 Record size in doubles =  12289        No. of grid_pts per rec  =   3070
 Max. records in memory =      3        Max. recs in file   =     13547


 Wrote atomic ZORA corrections to ./C1C2C1C2_mol_8_conformer_0.zora_sf


 Loading old vectors from job with title :

Molecule conformer 0


      Symmetry analysis of molecular orbitals - initial
      -------------------------------------------------

  Numbering of irreducible representations: 

     1 a1          2 a2          3 b1          4 b2      

  Orbital symmetries:

     1 b2          2 a1          3 a1          4 b1          5 a1      
     6 b2          7 a1          8 b1          9 a1         10 b2      
    11 a1         12 b2         13 a2         14 b1         15 a1      
    16 b1         17 a1         18 a1         19 b2         20 b1      
    21 b2         22 a1         23 b1         24 a2         25 b2      

   Time after variat. SCF:     47.1
   Time prior to 1st pass:     47.1

           Memory utilization after 1st SCF pass: 
           Heap Space remaining (MW):      131.03           131029062
          Stack Space remaining (MW):      131.06           131061508

   convergence    iter        energy       DeltaE   RMS-Dens  Diis-err    time
 ---------------- ----- ----------------- --------- --------- ---------  ------
 d= 0,ls=0.0,diis     1   -156.0006051052 -2.71D+02  2.54D-03  1.49D-02    49.2
 d= 0,ls=0.0,diis     2   -156.0030731565 -2.47D-03  6.41D-04  1.30D-03    51.0
 d= 0,ls=0.0,diis     3   -156.0031264391 -5.33D-05  3.06D-04  9.84D-04    53.1
 d= 0,ls=0.0,diis     4   -156.0032512520 -1.25D-04  3.46D-05  4.58D-06    54.6
 d= 0,ls=0.0,diis     5   -156.0032516386 -3.87D-07  1.63D-05  1.47D-06    56.6
 d= 0,ls=0.0,diis     6   -156.0032518232 -1.85D-07  4.28D-06  3.33D-08    58.7
(nogshift,skip_gshiftAOev,done_Fji)=( 1,F,F)


         Total DFT energy =     -156.003251823244
      One electron energy =     -436.314787330393
           Coulomb energy =      188.889086416638
    Exchange-Corr. energy =      -23.995796323037
 Nuclear repulsion energy =      115.418245413548

       Scaling correction =        0.035057490465

 Numeric. integr. density =       30.000000836038

     Total iterative time =     11.7s



                  Occupations of the irreducible representations
                  ----------------------------------------------

                     irrep           alpha         beta
                     --------     --------     --------
                     a1                7.0          7.0
                     a2                1.0          1.0
                     b1                3.0          3.0
                     b2                4.0          4.0


 center of mass
 --------------
 x =   0.00000000 y =   0.00000000 z =  -0.01871561

 moments of inertia (a.u.)
 ------------------
         195.633757737773           0.000000000000           0.000000000000
           0.000000000000         100.051788226009           0.000000000000
           0.000000000000           0.000000000000         232.345844122031

            General Information
            -------------------
          SCF calculation type: DFT
          Wavefunction type:  closed shell.
          No. of atoms     :    10
          No. of electrons :    30
           Alpha electrons :    15
            Beta electrons :    15
          Charge           :     0
          Spin multiplicity:     1
          Use of symmetry is: on ; symmetry adaption is: on 
          Maximum number of iterations: ***
          This is a Direct SCF calculation.
          AO basis - number of functions:    70
                     number of shells:    46
          Convergence on energy requested:  1.00D-06
          Convergence on density requested:  1.00D-05
          Convergence on gradient requested:  5.00D-04

              XC Information
              --------------
                         B3LYP Method XC Potential
                     Hartree-Fock (Exact) Exchange  0.200          
                        Slater Exchange Functional  0.800 local    
                    Becke 1988 Exchange Functional  0.720 non-local
              Lee-Yang-Parr Correlation Functional  0.810          
                  VWN I RPA Correlation Functional  0.190 local    

             Grid Information
             ----------------
          Grid used for XC integration:  fine      
          Radial quadrature: Mura-Knowles        
          Angular quadrature: Lebedev. 
          Tag              B.-S. Rad. Rad. Pts. Rad. Cut. Ang. Pts.
          ---              ---------- --------- --------- ---------
          C                   0.70       70          10.0       590
          H                   0.35       60          11.0       590
          Grid pruning is: on 
          Number of quadrature shells:   320
          Spatial weights used:  Erf1

          Convergence Information
          -----------------------
          Convergence aids based upon iterative change in 
          total energy or number of iterations. 
          Levelshifting, if invoked, occurs when the 
          HOMO/LUMO gap drops below (HL_TOL):  1.00D-02
          DIIS, if invoked, will attempt to extrapolate 
          using up to (NFOCK): 10 stored Fock matrices.

                    Damping( 0%)  Levelshifting(0.5)       DIIS
                  --------------- ------------------- ---------------
          dE  on:    start            ASAP                start   
          dE off:    2 iters        *** iters           *** iters 


      Screening Tolerance Information
      -------------------------------
          Density screening/tol_rho:  1.00D-10
          AO Gaussian exp screening on grid/accAOfunc:  14
          CD Gaussian exp screening on grid/accCDfunc:  20
          XC Gaussian exp screening on grid/accXCfunc:  20
          Schwarz screening/accCoul:  1.00D-08



                            NWChem DFT Gradient Module
                            --------------------------


                               Molecule conformer 0



  charge          =   0.00
  wavefunction    = closed shell

  Using symmetry


                         DFT ENERGY GRADIENTS

    atom               coordinates                        gradient
                 x          y          z           x          y          z
   1 C       0.000000  -2.246472   0.426524    0.000000  -0.038536  -0.015749
   2 C       1.553123   0.000000  -0.406191    0.012926   0.000000   0.010036
   3 C      -1.553123   0.000000  -0.406191   -0.012926   0.000000   0.010036
   4 C       0.000000   2.246472   0.426524   -0.000000   0.038536  -0.015749
   5 H       0.000000  -2.670854   2.383905    0.000000   0.009642  -0.015165
   6 H       0.000000  -3.757992  -0.851167    0.000000   0.024682   0.010402
   7 H       2.281218   0.000000  -2.276672   -0.010977   0.000000   0.010476
   8 H      -2.281218   0.000000  -2.276672    0.010977   0.000000   0.010476
   9 H       0.000000   3.757992  -0.851167   -0.000000  -0.024682   0.010402
  10 H       0.000000   2.670854   2.383905    0.000000  -0.009642  -0.015165

                 ----------------------------------------
                 |  Time  |  1-e(secs)   |  2-e(secs)   |
                 ----------------------------------------
                 |  CPU   |       0.00   |       0.03   |
                 ----------------------------------------
                 |  WALL  |       0.00   |       0.03   |
                 ----------------------------------------
  no constraints, skipping    0.0000000000000000     

  Step       Energy      Delta E   Gmax     Grms     Xrms     Xmax   Walltime
  ---- ---------------- -------- -------- -------- -------- -------- --------
@    1    -156.00325182 -2.4D-02  0.02556  0.00568  0.10092  0.21835     60.2
                                                                    



                                Z-matrix (autoz)
                                -------- 

 Units are Angstrom for bonds and degrees for angles

      Type          Name      I     J     K     L     M      Value     Gradient
      ----------- --------  ----- ----- ----- ----- ----- ---------- ----------
    1 Stretch                  1     2                       1.51091   -0.00067
    2 Stretch                  1     3                       1.51091   -0.00067
    3 Stretch                  1     5                       1.05987   -0.01686
    4 Stretch                  1     6                       1.04734   -0.02556
    5 Stretch                  2     3                       1.64375   -0.00050
    6 Stretch                  2     4                       1.51091   -0.00067
    7 Stretch                  2     7                       1.06216   -0.01374
    8 Stretch                  3     4                       1.51091   -0.00067
    9 Stretch                  3     8                       1.06216   -0.01374
   10 Stretch                  4     9                       1.04734   -0.02556
   11 Stretch                  4    10                       1.05987   -0.01686
   12 Bend                     1     2     3                57.04635   -0.00009
   13 Bend                     1     2     4               103.77430    0.00123
   14 Bend                     1     2     7               117.97594   -0.00173
   15 Bend                     1     3     2                57.04635   -0.00009
   16 Bend                     1     3     4               103.77430    0.00123
   17 Bend                     1     3     8               117.97594   -0.00173
   18 Bend                     2     1     3                65.90729    0.00018
   19 Bend                     2     1     5               116.85525   -0.00127
   20 Bend                     2     1     6               114.36859   -0.00082
   21 Bend                     2     3     4                57.04635   -0.00009
   22 Bend                     2     3     8               111.26875   -0.00117
   23 Bend                     2     4     3                65.90729    0.00018
   24 Bend                     2     4     9               114.36859   -0.00082
   25 Bend                     2     4    10               116.85525   -0.00127
   26 Bend                     3     1     5               116.85525   -0.00127
   27 Bend                     3     1     6               114.36859   -0.00082
   28 Bend                     3     2     4                57.04635   -0.00009
   29 Bend                     3     2     7               111.26875   -0.00117
   30 Bend                     3     4     9               114.36859   -0.00082
   31 Bend                     3     4    10               116.85525   -0.00127
   32 Bend                     4     2     7               117.97594   -0.00173
   33 Bend                     4     3     8               117.97594   -0.00173
   34 Bend                     5     1     6               117.97489    0.00255
   35 Bend                     9     4    10               117.97489    0.00255
   36 Torsion                  1     2     3     4         139.32284    0.00292
   37 Torsion                  1     2     3     8        -110.33858    0.00146
   38 Torsion                  1     2     4     3         -34.27212    0.00215
   39 Torsion                  1     2     4     9        -141.34779    0.00275
   40 Torsion                  1     2     4    10          74.89009    0.00112
   41 Torsion                  1     3     2     4        -139.32284   -0.00292
   42 Torsion                  1     3     2     7         110.33858   -0.00146
   43 Torsion                  1     3     4     2          34.27212   -0.00215
   44 Torsion                  1     3     4     9         141.34779   -0.00275
   45 Torsion                  1     3     4    10         -74.89009   -0.00112
   46 Torsion                  2     1     3     4         -34.27212    0.00215
   47 Torsion                  2     1     3     8          98.34647   -0.00053
   48 Torsion                  2     3     1     5         109.16221   -0.00103
   49 Torsion                  2     3     1     6        -107.07567    0.00061
   50 Torsion                  2     3     4     9         107.07567   -0.00061
   51 Torsion                  2     3     4    10        -109.16221    0.00103
   52 Torsion                  2     4     3     8         -98.34647    0.00053
   53 Torsion                  3     1     2     4          34.27212   -0.00215
   54 Torsion                  3     1     2     7         -98.34647    0.00053
   55 Torsion                  3     2     1     5        -109.16221    0.00103
   56 Torsion                  3     2     1     6         107.07567   -0.00061
   57 Torsion                  3     2     4     9        -107.07567    0.00061
   58 Torsion                  3     2     4    10         109.16221   -0.00103
   59 Torsion                  3     4     2     7          98.34647   -0.00053
   60 Torsion                  4     2     1     5         -74.89009   -0.00112
   61 Torsion                  4     2     1     6         141.34779   -0.00275
   62 Torsion                  4     2     3     8         110.33858   -0.00146
   63 Torsion                  4     3     1     5          74.89009    0.00112
   64 Torsion                  4     3     1     6        -141.34779    0.00275
   65 Torsion                  4     3     2     7        -110.33858    0.00146
   66 Torsion                  5     1     2     7         152.49132    0.00156
   67 Torsion                  5     1     3     8        -152.49132   -0.00156
   68 Torsion                  6     1     2     7           8.72920   -0.00007
   69 Torsion                  6     1     3     8          -8.72920    0.00007
   70 Torsion                  7     2     3     8          -0.00000    0.00000
   71 Torsion                  7     2     4     9          -8.72920    0.00007
   72 Torsion                  7     2     4    10        -152.49132   -0.00156
   73 Torsion                  8     3     4     9           8.72920   -0.00007
   74 Torsion                  8     3     4    10         152.49132    0.00156

 Restricting large step in mode    1 eval= 2.0D-02 step=-4.7D-01 new=-3.0D-01
  no constraints, skipping    0.0000000000000000     
  no constraints, skipping    0.0000000000000000     
  no constraints, skipping    0.0000000000000000     
  no constraints, skipping    0.0000000000000000     
  no constraints, skipping    0.0000000000000000     
  no constraints, skipping    0.0000000000000000     
  no constraints, skipping    0.0000000000000000     
  no constraints, skipping    0.0000000000000000     

                                 NWChem DFT Module
                                 -----------------


                               Molecule conformer 0




 Summary of "ao basis" -> "ao basis" (spherical)
 ------------------------------------------------------------------------------
       Tag                 Description            Shells   Functions and Types
 ---------------- ------------------------------  ------  ---------------------
 C                           6-311G                  7       13   4s3p
 H                           6-311G                  3        3   3s


      Symmetry analysis of basis
      --------------------------

        a1         29
        a2          6
        b1         16
        b2         19

  Caching 1-el integrals 

            General Information
            -------------------
          SCF calculation type: DFT
          Wavefunction type:  closed shell.
          No. of atoms     :    10
          No. of electrons :    30
           Alpha electrons :    15
            Beta electrons :    15
          Charge           :     0
          Spin multiplicity:     1
          Use of symmetry is: on ; symmetry adaption is: on 
          Maximum number of iterations: ***
          This is a Direct SCF calculation.
          AO basis - number of functions:    70
                     number of shells:    46
          Convergence on energy requested:  1.00D-06
          Convergence on density requested:  1.00D-05
          Convergence on gradient requested:  5.00D-04

              XC Information
              --------------
                         B3LYP Method XC Potential
                     Hartree-Fock (Exact) Exchange  0.200          
                        Slater Exchange Functional  0.800 local    
                    Becke 1988 Exchange Functional  0.720 non-local
              Lee-Yang-Parr Correlation Functional  0.810          
                  VWN I RPA Correlation Functional  0.190 local    

             Grid Information
             ----------------
          Grid used for XC integration:  fine      
          Radial quadrature: Mura-Knowles        
          Angular quadrature: Lebedev. 
          Tag              B.-S. Rad. Rad. Pts. Rad. Cut. Ang. Pts.
          ---              ---------- --------- --------- ---------
          C                   0.70       70          10.0       590
          H                   0.35       60          11.0       590
          Grid pruning is: on 
          Number of quadrature shells:   320
          Spatial weights used:  Erf1

          Convergence Information
          -----------------------
          Convergence aids based upon iterative change in 
          total energy or number of iterations. 
          Levelshifting, if invoked, occurs when the 
          HOMO/LUMO gap drops below (HL_TOL):  1.00D-02
          DIIS, if invoked, will attempt to extrapolate 
          using up to (NFOCK): 10 stored Fock matrices.

                    Damping( 0%)  Levelshifting(0.5)       DIIS
                  --------------- ------------------- ---------------
          dE  on:    start            ASAP                start   
          dE off:    2 iters        *** iters           *** iters 


      Screening Tolerance Information
      -------------------------------
          Density screening/tol_rho:  1.00D-10
          AO Gaussian exp screening on grid/accAOfunc:  14
          CD Gaussian exp screening on grid/accCDfunc:  20
          XC Gaussian exp screening on grid/accXCfunc:  20
          Schwarz screening/accCoul:  1.00D-08

          Performing ZORA calculations
          ----------------------------


      Superposition of Atomic Density Guess
      -------------------------------------

 Sum of atomic energies:        -153.67306699

 Read atomic ZORA corrections from ./C1C2C1C2_mol_8_conformer_0.zora_sf

 Forcing recalculation of ZORA corrections
       Generating atomic ZORA corrections
       ----------------------------------

 In dft_scf:: zora:Knucl= F

 Grid_pts file          = ./C1C2C1C2_mol_8_conformer_0.gridpts.00
 Record size in doubles =  12289        No. of grid_pts per rec  =   3070
 Max. records in memory =      3        Max. recs in file   =     13547


 Wrote atomic ZORA corrections to ./C1C2C1C2_mol_8_conformer_0.zora_sf


 Loading old vectors from job with title :

Molecule conformer 0


      Symmetry analysis of molecular orbitals - initial
      -------------------------------------------------

  Numbering of irreducible representations: 

     1 a1          2 a2          3 b1          4 b2      

  Orbital symmetries:

     1 a1          2 b1          3 b2          4 a1          5 a1      
     6 b2          7 b1          8 a1          9 a1         10 b2      
    11 a1         12 b2         13 a2         14 b1         15 a1      
    16 b1         17 a1         18 a1         19 b2         20 b1      
    21 b2         22 a1         23 b1         24 a2         25 b2      

   Time after variat. SCF:     66.9
   Time prior to 1st pass:     66.9

           Memory utilization after 1st SCF pass: 
           Heap Space remaining (MW):      131.03           131029062
          Stack Space remaining (MW):      131.06           131061508

   convergence    iter        energy       DeltaE   RMS-Dens  Diis-err    time
 ---------------- ----- ----------------- --------- --------- ---------  ------
 d= 0,ls=0.0,diis     1   -156.0080477841 -2.71D+02  1.93D-03  7.03D-03    68.6
 d= 0,ls=0.0,diis     2   -156.0089765279 -9.29D-04  7.34D-04  1.52D-03    70.3
 d= 0,ls=0.0,diis     3   -156.0090855330 -1.09D-04  2.32D-04  7.30D-04    71.7
 d= 0,ls=0.0,diis     4   -156.0091742386 -8.87D-05  5.03D-05  3.94D-06    72.9
 d= 0,ls=0.0,diis     5   -156.0091746763 -4.38D-07  1.56D-05  9.71D-07    74.4
 d= 0,ls=0.0,diis     6   -156.0091748017 -1.25D-07  6.38D-06  1.96D-08    76.3
(nogshift,skip_gshiftAOev,done_Fji)=( 1,F,F)


         Total DFT energy =     -156.009174801743
      One electron energy =     -434.967012128306
           Coulomb energy =      188.196097699843
    Exchange-Corr. energy =      -23.941902848841
 Nuclear repulsion energy =      114.703642475562

       Scaling correction =        0.035068229710

 Numeric. integr. density =       29.999999072638

     Total iterative time =      9.5s



                  Occupations of the irreducible representations
                  ----------------------------------------------

                     irrep           alpha         beta
                     --------     --------     --------
                     a1                7.0          7.0
                     a2                1.0          1.0
                     b1                3.0          3.0
                     b2                4.0          4.0


 center of mass
 --------------
 x =   0.00000000 y =   0.00000000 z =  -0.02901536

 moments of inertia (a.u.)
 ------------------
         196.080468400180           0.000000000000           0.000000000000
           0.000000000000         102.963376727326           0.000000000000
           0.000000000000           0.000000000000         232.070987639767
 Line search: 
     step= 1.00 grad=-8.6D-03 hess= 2.7D-03 energy=   -156.009175 mode=downhill
 new step= 1.62                   predicted energy=   -156.010185
  no constraints, skipping    0.0000000000000000     
  no constraints, skipping    0.0000000000000000     
  no constraints, skipping    0.0000000000000000     
  no constraints, skipping    0.0000000000000000     
  no constraints, skipping    0.0000000000000000     
  no constraints, skipping    0.0000000000000000     
  no constraints, skipping    0.0000000000000000     
  no constraints, skipping    0.0000000000000000     

          --------
          Step   2
          --------


                         Geometry "geometry" -> "geometry"
                         ---------------------------------

 Output coordinates in angstroms (scale by  1.889725989 to convert to a.u.)

  No.       Tag          Charge          X              Y              Z
 ---- ---------------- ---------- -------------- -------------- --------------
    1 C                    6.0000     0.00000000    -1.17097213     0.23589243
    2 C                    6.0000     0.82846460     0.00000000    -0.24747345
    3 C                    6.0000    -0.82846460     0.00000000    -0.24747345
    4 C                    6.0000     0.00000000     1.17097213     0.23589243
    5 H                    1.0000     0.00000000    -1.40082468     1.30203380
    6 H                    1.0000     0.00000000    -2.04409061    -0.42691227
    7 H                    1.0000     1.25376695     0.00000000    -1.24645372
    8 H                    1.0000    -1.25376695     0.00000000    -1.24645372
    9 H                    1.0000     0.00000000     2.04409061    -0.42691227
   10 H                    1.0000     0.00000000     1.40082468     1.30203380

      Atomic Mass 
      ----------- 

      C                 12.000000
      H                  1.007825


 Effective nuclear repulsion energy (a.u.)     114.2770891857

            Nuclear Dipole moment (a.u.) 
            ----------------------------
        X                 Y               Z
 ---------------- ---------------- ----------------
     0.0000000000     0.0000000000    -1.6660516660

      Symmetry information
[...]
(dia2,par1)(k,t,iat1,spin)=(  2,  2,  9,  1)=(     0.04402744,     0.04402744,     0.23835604,     0.23835604) ppm
(dia2,par1)(k,t,iat1,spin)=(  3,  2,  9,  1)=(     2.66437423,     2.66437423,    -0.07202327,    -0.07202327) ppm
(dia2,par1)(k,t,iat1,spin)=(  1,  3,  9,  1)=(     0.00160027,     0.00160027,    -0.00155228,    -0.00155228) ppm
(dia2,par1)(k,t,iat1,spin)=(  2,  3,  9,  1)=(     3.50262512,     3.50262512,    -0.44656340,    -0.44656340) ppm
(dia2,par1)(k,t,iat1,spin)=(  3,  3,  9,  1)=(     5.09816847,     5.09816847,    -3.43620142,    -3.43620142) ppm
 Grid integrated density:      30.000003891054
 Requested integration accuracy:   0.10E-06
dia1(k,t,iat1,ispin)=(  1,  1, 10,  1)=(    17.56237400,    17.56237400) ppm
dia1(k,t,iat1,ispin)=(  1,  2, 10,  1)=(    -0.00130217,    -0.00130217) ppm
dia1(k,t,iat1,ispin)=(  1,  3, 10,  1)=(    -0.00169763,    -0.00169763) ppm
dia1(k,t,iat1,ispin)=(  2,  1, 10,  1)=(    -0.00197240,    -0.00197240) ppm
dia1(k,t,iat1,ispin)=(  2,  2, 10,  1)=(    21.10688966,    21.10688966) ppm
dia1(k,t,iat1,ispin)=(  2,  3, 10,  1)=(     5.66531866,     5.66531866) ppm
dia1(k,t,iat1,ispin)=(  3,  1, 10,  1)=(    -0.00238688,    -0.00238688) ppm
dia1(k,t,iat1,ispin)=(  3,  2, 10,  1)=(     4.96430999,     4.96430999) ppm
dia1(k,t,iat1,ispin)=(  3,  3, 10,  1)=(    40.23668701,    40.23668701) ppm
(dia2,par1)(k,t,iat1,spin)=(  1,  1, 10,  1)=(     5.34815526,     5.34815526,    -1.06348398,    -1.06348398) ppm
(dia2,par1)(k,t,iat1,spin)=(  2,  1, 10,  1)=(    -0.00113212,    -0.00113212,     0.00077676,     0.00077676) ppm
(dia2,par1)(k,t,iat1,spin)=(  3,  1, 10,  1)=(     0.00021123,     0.00021123,     0.00442324,     0.00442324) ppm
(dia2,par1)(k,t,iat1,spin)=(  1,  2, 10,  1)=(    -0.00028085,    -0.00028085,     0.00099108,     0.00099108) ppm
(dia2,par1)(k,t,iat1,spin)=(  2,  2, 10,  1)=(     6.37479475,     6.37479475,     1.14731267,     1.14731267) ppm
(dia2,par1)(k,t,iat1,spin)=(  3,  2, 10,  1)=(    -0.73643268,    -0.73643268,     2.30548315,     2.30548315) ppm
(dia2,par1)(k,t,iat1,spin)=(  1,  3, 10,  1)=(    -0.00071203,    -0.00071203,    -0.00093053,    -0.00093053) ppm
(dia2,par1)(k,t,iat1,spin)=(  2,  3, 10,  1)=(    -2.25452668,    -2.25452668,    -0.47445544,    -0.47445544) ppm
(dia2,par1)(k,t,iat1,spin)=(  3,  3, 10,  1)=(    -0.79150064,    -0.79150064,    -2.70439975,    -2.70439975) ppm
 Grid integrated density:      30.000003891054
 Requested integration accuracy:   0.10E-06

 Wrote ZORA NMR data to ./C1C2C1C2_mol_8_conformer_0.zora_nmrcs

(nogshift,skip_gshiftAOev,done_Fji)=( 1,F,T)


         Total DFT energy =     -156.022697213894
      One electron energy =     -437.067793798965
           Coulomb energy =      189.278191788648
    Exchange-Corr. energy =      -23.962455881353
 Nuclear repulsion energy =      115.629863515331

             COSMO energy =        0.099497162444

       Scaling correction =        0.035135875056

 Numeric. integr. density =       30.000001524947

     Total iterative time =     51.0s


                                   COSMO solvation results
                                   -----------------------

                 gas phase energy =      -156.020167272728
                 sol phase energy =      -156.022697213894
 (electrostatic) solvation energy =         0.002529941167 (    1.59 kcal/mol)

 center of mass
 --------------
 x =   0.00000000 y =   0.00000000 z =  -0.16243785

 moments of inertia (a.u.)
 ------------------
         195.730582905969           0.000000000000           0.000000000000
           0.000000000000         105.241376929117           0.000000000000
           0.000000000000           0.000000000000         218.541959932706

            Scalar ZORA NMR Shielding
            -------------------------


          -----------------------------------------
          Chemical Shielding Tensors (GIAO, in ppm)
          -----------------------------------------


 Read ZORA NMR data from ./C1C2C1C2_mol_8_conformer_0.zora_nmrcs

    0 giaofock schwarz done =      88.88%
    0 giaofock schwarz done =      97.54%
                                NWChem CPHF Module
                                ------------------



 solvent parameters
 solvname_short: cdcl3   
 solvname_long:  unknown                            
 dielec:       78.4000
 dielecinf:     1.7769

          ---------------
          -cosmo- solvent
          ---------------
 Cosmo: York-Karplus, doi: 10.1021/jp992097l
 dielectric constant -eps-     =  78.40
 screen = (eps-1)/(eps    )    =   0.98724
 surface charge correction     = lagrangian
 -lineq- algorithm             =   0
 -bem- low  level              =   2
 -bem- from -octahedral-
 gaussian surface charge width =   0.98000
 degree of switching           =   1.00000
 switching function tolerance  =   0.00010
 atomic radii = 
 --------------
    1  6.000  2.000
    2  6.000  2.000
    3  6.000  2.000
    4  6.000  2.000
    5  1.000  1.300
    6  1.000  1.300
    7  1.000  1.300
    8  1.000  1.300
    9  1.000  1.300
   10  1.000  1.300

 solvent accessible surface
 --------------------------

 ---------- ATOMIC COORDINATES (A.U.) ------------ VDWR(ANG.) --
     1    0.00000000   -2.16055848    0.43691905     2.000
     2    1.42632929    0.00000000   -0.76991701     2.000
     3   -1.42632929    0.00000000   -0.76991701     2.000
     4    0.00000000    2.16055848    0.43691905     2.000
     5    0.00000000   -2.34258166    2.48243359     1.300
     6    0.00000000   -3.94829353   -0.56063926     1.300
     7    2.74612375    0.00000000   -2.31239741     1.300
     8   -2.74612375    0.00000000   -2.31239741     1.300
     9    0.00000000    3.94829353   -0.56063926     1.300
    10    0.00000000    2.34258166    2.48243359     1.300
 number of segments per atom =         32
 number of   points per atom =         32
 atom (   nspa,  nppa )
 ----------------------
    1 (     14,     0 )       0
    2 (     16,     0 )       0
    3 (     16,     0 )       0
    4 (     14,     0 )       0
    5 (     16,     0 )       0
    6 (     16,     0 )       0
    7 (     12,     0 )       0
    8 (     12,     0 )       0
    9 (     16,     0 )       0
   10 (     16,     0 )       0
 number of -cosmo- surface points =      148
 molecular surface =     90.016 angstrom**2
 molecular volume  =     51.554 angstrom**3
 G(cav/disp)       =      1.310 kcal/mol
 ...... end of -cosmo- initialization ......


  scftype          =     RHF 
  nclosed          =       15
  nopen            =        0
  variables        =      825
  # of vectors     =        3
  tolerance        = 0.10D-03
  level shift      = 0.00D+00
  max iterations   =       50
  max subspace     =       30

 SCF residual:    1.4155225211419598E-004


Iterative solution of linear equations
  No. of variables      825
  No. of equations        3
  Maximum subspace       30
        Iterations       50
       Convergence  1.0D-04
        Start time    888.3


   iter   nsub   residual    time
   ----  ------  --------  ---------
     1      3    4.48D-01     890.5
     2      6    7.68D-03     892.4
     3      9    5.03D-04     894.3
     4     12    2.81D-05     896.6

 Wrote CPHF data to ./C1C2C1C2_mol_8_conformer_0.shieldcphf

 Calc. par tensor-> zora
      Atom:    1  H 
        Diamagnetic
     22.9269      0.0024     -0.0019
      0.0024     27.4920     -3.8179
     -0.0019     -3.8179     39.4600

        Paramagnetic
      3.9521     -0.0020      0.0006
     -0.0020      3.1403      0.2874
      0.0006      0.2874     -0.8702

        Total Shielding Tensor
     26.8790      0.0005     -0.0013
      0.0005     30.6324     -3.5305
     -0.0013     -3.5305     38.5898

           isotropic =      32.0337
          anisotropy =      11.8449

          Principal Components and Axis System
                 1           2           3
               39.9304     29.2918     26.8790

      1        -0.0001     -0.0000      1.0000
      2        -0.3550      0.9349     -0.0000
      3         0.9349      0.3550      0.0001



      Atom:    2  H 
        Diamagnetic
     24.1425      0.0033     -0.0002
      0.0033     39.1563      5.0646
     -0.0002      5.0646     26.9547

        Paramagnetic
      2.4113     -0.0037     -0.0002
     -0.0037      1.1937     -2.4626
     -0.0002     -2.4626      0.4996

        Total Shielding Tensor
     26.5538     -0.0004     -0.0004
     -0.0004     40.3500      2.6020
     -0.0004      2.6020     27.4543

           isotropic =      31.4527
          anisotropy =      14.1038

          Principal Components and Axis System
                 1           2           3
               40.8552     26.9491     26.5538

      1        -0.0000     -0.0009      1.0000
      2         0.9817     -0.1906     -0.0001
      3         0.1906      0.9817      0.0008



      Atom:    3  H 
        Diamagnetic
     30.8974      0.0017     -8.2031
      0.0017     24.3401     -0.0016
     -8.2031     -0.0016     32.3585

        Paramagnetic
     -0.1285      0.0003      1.5275
      0.0003      4.0258     -0.0002
      1.5275     -0.0002      2.8436

        Total Shielding Tensor
     30.7689      0.0020     -6.6756
      0.0020     28.3659     -0.0018
     -6.6756     -0.0018     35.2021

           isotropic =      31.4456
          anisotropy =      12.8607

          Principal Components and Axis System
                 1           2           3
               40.0194     28.3659     25.9515

      1        -0.5852      0.0001      0.8109
      2        -0.0002      1.0000     -0.0002
      3         0.8109      0.0003      0.5852



      Atom:    4  H 
        Diamagnetic
     30.8758     -0.0010      8.2061
     -0.0010     24.3149     -0.0008
      8.2061     -0.0008     32.3382

        Paramagnetic
     -0.1224     -0.0007     -1.5277
     -0.0007      4.0427     -0.0011
     -1.5277     -0.0011      2.8382

        Total Shielding Tensor
     30.7534     -0.0017      6.6784
     -0.0017     28.3576     -0.0019
      6.6784     -0.0019     35.1764

           isotropic =      31.4291
          anisotropy =      12.8563

          Principal Components and Axis System
                 1           2           3
               40.0000     28.3576     25.9298

      1         0.5855      0.0000      0.8107
      2        -0.0002      1.0000      0.0001
      3         0.8107      0.0002     -0.5855



      Atom:    5  H 
        Diamagnetic
     24.1291     -0.0042     -0.0003
     -0.0042     39.1459     -5.0648
     -0.0003     -5.0648     26.9427

        Paramagnetic
      2.4026      0.0049     -0.0004
      0.0049      1.1891      2.4658
     -0.0004      2.4658      0.4936

        Total Shielding Tensor
     26.5317      0.0007     -0.0008
      0.0007     40.3351     -2.5990
     -0.0008     -2.5990     27.4363

           isotropic =      31.4343
          anisotropy =      14.1070

          Principal Components and Axis System
                 1           2           3
               40.8390     26.9323     26.5317

      1         0.0001     -0.0015      1.0000
      2         0.9817      0.1904      0.0002
      3        -0.1904      0.9817      0.0015



      Atom:    6  H 
        Diamagnetic
     22.9105     -0.0023     -0.0023
     -0.0023     27.4817      3.8193
     -0.0023      3.8193     39.4452

        Paramagnetic
      3.9505      0.0022      0.0023
      0.0022      3.1405     -0.2874
      0.0023     -0.2874     -0.8795

        Total Shielding Tensor
     26.8611     -0.0002      0.0000
     -0.0002     30.6222      3.5319
      0.0000      3.5319     38.5657

           isotropic =      32.0163
          anisotropy =      11.8389

          Principal Components and Axis System
                 1           2           3
               39.9090     29.2790     26.8611

      1        -0.0000     -0.0001      1.0000
      2         0.3555      0.9347      0.0001
      3         0.9347     -0.3555     -0.0000




 Task  times  cpu:       73.8s     wall:       71.9s


                                NWChem Input Module
                                -------------------


 Summary of allocated global arrays
-----------------------------------
  array 0 => double precision sf 1(70,70),  handle: -987 
  array 1 => double precision sf 1(70,70),  handle: -986 
  array 2 => double precision sf 1(70,70),  handle: -985 
  array 3 => double precision sf 1(70,70),  handle: -984 
  array 4 => double precision sf 1(70,70),  handle: -983 
  array 5 => double precision sf 1(70,70),  handle: -982 
  array 6 => double precision sf 1(70,70),  handle: -981 
  array 7 => double precision sf 1(70,70),  handle: -980 
  array 8 => double precision sf 1(70,70),  handle: -979 
  array 9 => double precision sf 1(70,70),  handle: -978 
  array 10 => double precision sf 1(70,70),  handle: -977 
  array 11 => double precision sf 1(70,70),  handle: -976 
  array 12 => double precision sf 1(70,70),  handle: -975 
  array 13 => double precision sf 1(70,70),  handle: -974 
  array 14 => double precision sf 1(70,70),  handle: -973 
  array 15 => double precision sf 1(70,70),  handle: -972 
  array 16 => double precision sf 1(70,70),  handle: -971 
  array 17 => double precision sf 1(70,70),  handle: -970 
  array 18 => double precision sf 1(70,70),  handle: -969 
  array 19 => double precision sf 1(70,70),  handle: -968 
  array 20 => double precision sf 1(70,70),  handle: -967 
  array 21 => double precision sf 1(70,70),  handle: -966 
  array 22 => double precision sf 1(70,70),  handle: -965 
  array 23 => double precision sf 1(70,70),  handle: -964 
  array 24 => double precision sf 1(70,70),  handle: -963 
  array 25 => double precision sf 1(70,70),  handle: -962 
  array 26 => double precision sf 1(70,70),  handle: -961 
  array 27 => double precision sf 1(70,70),  handle: -960 
  array 28 => double precision sf 1(70,70),  handle: -959 
  array 29 => double precision sf 1(70,70),  handle: -958 
  array 30 => double precision sf 1(70,70),  handle: -957 
  array 31 => double precision sf 1(70,70),  handle: -956 
  array 32 => double precision sf 1(70,70),  handle: -955 
  array 33 => double precision sf 1(70,70),  handle: -954 
  array 34 => double precision sf 1(70,70),  handle: -953 
  array 35 => double precision sf 1(70,70),  handle: -952 
  array 36 => double precision sf 1(70,70),  handle: -951 
  array 37 => double precision sf 1(70,70),  handle: -950 
  array 38 => double precision sf 1(70,70),  handle: -949 
  array 39 => double precision sf 1(70,70),  handle: -948 
  array 40 => double precision sf 1(70,70),  handle: -947 
  array 41 => double precision sf 1(70,70),  handle: -946 
  array 42 => double precision sf 1(70,70),  handle: -945 
  array 43 => double precision sf 1(70,70),  handle: -944 
  array 44 => double precision sf 1(70,70),  handle: -943 
  array 45 => double precision sf 1(70,70),  handle: -942 
  array 46 => double precision sf 1(70,70),  handle: -941 
  array 47 => double precision sf 1(70,70),  handle: -940 
  array 48 => double precision sf 1(70,70),  handle: -939 
  array 49 => double precision sf 1(70,70),  handle: -938 
  array 50 => double precision sf 1(70,70),  handle: -937 



                         GA Statistics for process    0
                         ------------------------------

       create   destroy   get      put      acc     scatter   gather  read&inc
calls: 9188     8822     2.32e+05 5.41e+04 7.19e+04   60        0     6950     
number of processes/call 0.00e+00 0.00e+00 0.00e+00 0.00e+00 0.00e+00
bytes total:             3.56e+08 5.51e+07 2.82e+08 3.36e+02 0.00e+00 5.56e+04
bytes remote:            3.15e+08 4.52e+07 2.60e+08 -1.68e+02 0.00e+00 0.00e+00
Max memory consumed for GA by this process: 580576 bytes

MA_summarize_allocated_blocks: starting scan ...
MA_summarize_allocated_blocks: scan completed: 0 heap blocks, 0 stack blocks
MA usage statistics:

	allocation statistics:
					      heap	     stack
					      ----	     -----
	current number of blocks	         0	         0
	maximum number of blocks	        66	        59
	current total bytes		         0	         0
	maximum total bytes		   2004840	  27319096
	maximum total K-bytes		      2005	     27320
	maximum total M-bytes		         3	        28


                                     CITATION
                                     --------
                Please cite the following reference when publishing
                           results obtained with NWChem:

          E. Apr, E. J. Bylaska, W. A. de Jong, N. Govind, K. Kowalski,
       T. P. Straatsma, M. Valiev, H. J. J. van Dam, Y. Alexeev, J. Anchell,
       V. Anisimov, F. W. Aquino, R. Atta-Fynn, J. Autschbach, N. P. Bauman,
     J. C. Becca, D. E. Bernholdt, K. Bhaskaran-Nair, S. Bogatko, P. Borowski,
        J. Boschen, J. Brabec, A. Bruner, E. Caut, Y. Chen, G. N. Chuev,
      C. J. Cramer, J. Daily, M. J. O. Deegan, T. H. Dunning Jr., M. Dupuis,
   K. G. Dyall, G. I. Fann, S. A. Fischer, A. Fonari, H. Frchtl, L. Gagliardi,
      J. Garza, N. Gawande, S. Ghosh, K. Glaesemann, A. W. Gtz, J. Hammond,
       V. Helms, E. D. Hermes, K. Hirao, S. Hirata, M. Jacquelin, L. Jensen,
   B. G. Johnson, H. Jnsson, R. A. Kendall, M. Klemm, R. Kobayashi, V. Konkov,
      S. Krishnamoorthy, M. Krishnan, Z. Lin, R. D. Lins, R. J. Littlefield,
      A. J. Logsdail, K. Lopata, W. Ma, A. V. Marenich, J. Martin del Campo,
   D. Mejia-Rodriguez, J. E. Moore, J. M. Mullin, T. Nakajima, D. R. Nascimento,
    J. A. Nichols, P. J. Nichols, J. Nieplocha, A. Otero-de-la-Roza, B. Palmer,
    A. Panyala, T. Pirojsirikul, B. Peng, R. Peverati, J. Pittner, L. Pollack,
   R. M. Richard, P. Sadayappan, G. C. Schatz, W. A. Shelton, D. W. Silverstein,
   D. M. A. Smith, T. A. Soares, D. Song, M. Swart, H. L. Taylor, G. S. Thomas,
            V. Tipparaju, D. G. Truhlar, K. Tsemekhman, T. Van Voorhis,
     . Vzquez-Mayagoitia, P. Verma, O. Villa, A. Vishnu, K. D. Vogiatzis,
        D. Wang, J. H. Weare, M. J. Williamson, T. L. Windus, K. Woliski,
        A. T. Wong, Q. Wu, C. Yang, Q. Yu, M. Zacharias, Z. Zhang, Y. Zhao,
                                and R. J. Harrison
                        "NWChem: Past, present, and future
                         J. Chem. Phys. 152, 184102 (2020)
                               doi:10.1063/5.0004997

                                      AUTHORS
                                      -------
     E. Apra, E. J. Bylaska, N. Govind, K. Kowalski, M. Valiev, W. A. de Jong,
      T. P. Straatsma, H. J. J. van Dam, D. Wang, T. L. Windus, N. P. Bauman,
       A. Panyala, J. Hammond, J. Autschbach, K. Bhaskaran-Nair, J. Brabec,
    K. Lopata, S. A. Fischer, S. Krishnamoorthy, M. Jacquelin, W. Ma, M. Klemm,
       O. Villa, Y. Chen, V. Anisimov, F. Aquino, S. Hirata, M. T. Hackler,
           Eric Hermes, L. Jensen, J. E. Moore, J. C. Becca, V. Konjkov,
            D. Mejia-Rodriguez, T. Risthaus, M. Malagoli, A. Marenich,
   A. Otero-de-la-Roza, J. Mullin, P. Nichols, R. Peverati, J. Pittner, Y. Zhao,
        P.-D. Fan, A. Fonari, M. J. Williamson, R. J. Harrison, J. R. Rehr,
      M. Dupuis, D. Silverstein, D. M. A. Smith, J. Nieplocha, V. Tipparaju,
      M. Krishnan, B. E. Van Kuiken, A. Vazquez-Mayagoitia, M. Swart, Q. Wu,
   T. Van Voorhis, A. A. Auer, M. Nooijen, L. D. Crosby, E. Brown, G. Cisneros,
     G. I. Fann, H. Fruchtl, J. Garza, K. Hirao, R. A. Kendall, J. A. Nichols,
       K. Tsemekhman, K. Wolinski, J. Anchell, D. E. Bernholdt, P. Borowski,
       T. Clark, D. Clerc, H. Dachsel, M. J. O. Deegan, K. Dyall, D. Elwood,
      E. Glendening, M. Gutowski, A. C. Hess, J. Jaffe, B. G. Johnson, J. Ju,
        R. Kobayashi, R. Kutteh, Z. Lin, R. Littlefield, X. Long, B. Meng,
      T. Nakajima, S. Niu, L. Pollack, M. Rosing, K. Glaesemann, G. Sandrone,
      M. Stave, H. Taylor, G. Thomas, J. H. van Lenthe, A. T. Wong, Z. Zhang.

 Total times  cpu:      888.3s     wall:      896.9s
