 argument  1 = C1C2C1C2_mol_0_conformer_0.nw



============================== echo of input deck ==============================
start

title "Molecule conformer 0"

memory total 4000 mb

echo
geometry units angstroms
   C     -1.2219     0.2380     0.3224
   C     -0.2144    -0.2233    -0.7063
   C      0.2272     0.0977     0.7304
   C      1.1632     0.3366    -0.4327
   H     -1.8942    -0.5583     0.7070
   H     -1.5506     1.2896     0.1886
   H     -0.2100    -1.3283    -0.8364
   H      0.4335    -0.8606     1.2568
   H      1.2753     1.4063    -0.7063
   H      1.9918    -0.3978    -0.5234
end


basis spherical
* library 6-311G
end

driver
  maxiter 500
  xyz final
end

relativistic
  zora on
  zora:cutoff_NMR 1d-8
  zora:cutoff 1d-30
end

dft
  direct
  grid fine
  xc B3LYP
  mult 1
  maxiter 1500
  noprint "final vectors analysis" multipole
end

task dft optimize

task dft freq

property
  shielding 6 5 6 7 8 9 10
end

cosmo
   solvent cdcl3
end

task dft property
================================================================================


                                         
                                         


             Northwest Computational Chemistry Package (NWChem) 7.0.2
             --------------------------------------------------------


                    Environmental Molecular Sciences Laboratory
                       Pacific Northwest National Laboratory
                                Richland, WA 99352

                              Copyright (c) 1994-2020
                       Pacific Northwest National Laboratory
                            Battelle Memorial Institute

             NWChem is an open-source computational chemistry package
                        distributed under the terms of the
                      Educational Community License (ECL) 2.0
             A copy of the license is included with this distribution
                              in the LICENSE.TXT file

                                  ACKNOWLEDGMENT
                                  --------------

            This software and its documentation were developed at the
            EMSL at Pacific Northwest National Laboratory, a multiprogram
            national laboratory, operated for the U.S. Department of Energy
            by Battelle under Contract Number DE-AC05-76RL01830. Support
            for this work was provided by the Department of Energy Office
            of Biological and Environmental Research, Office of Basic
            Energy Sciences, and the Office of Advanced Scientific Computing.


           Job information
           ---------------

    hostname        = ponder
    program         = nwchem
    date            = Sat Aug  3 13:28:35 2024

    compiled        = Sat_Apr_09_17:12:10_2022
    source          = /build/nwchem-f1f4gx/nwchem-7.0.2/build-openmpi
    nwchem branch   = 7.0.2
    nwchem revision = N/A
    ga revision     = 5.8.1
    use scalapack   = T
    input           = C1C2C1C2_mol_0_conformer_0.nw
    prefix          = C1C2C1C2_mol_0_conformer_0.
    data base       = ./C1C2C1C2_mol_0_conformer_0.db
    status          = startup
    nproc           =       40
    time left       =     -1s



           Memory information
           ------------------

    heap     =  131071994 doubles =   1000.0 Mbytes
    stack    =  131071999 doubles =   1000.0 Mbytes
    global   =  262144000 doubles =   2000.0 Mbytes (distinct from heap & stack)
    total    =  524287993 doubles =   4000.0 Mbytes
    verify   = yes
    hardfail = no 


           Directory information
           ---------------------

  0 permanent = .
  0 scratch   = .




                                NWChem Input Module
                                -------------------


                               Molecule conformer 0
                               --------------------

 Scaling coordinates for geometry "geometry" by  1.889725989
 (inverse scale =  0.529177249)

 C2V symmetry detected

          ------
          auto-z
          ------
  no constraints, skipping    0.0000000000000000     
  no constraints, skipping    0.0000000000000000     


                             Geometry "geometry" -> ""
                             -------------------------

 Output coordinates in angstroms (scale by  1.889725989 to convert to a.u.)

  No.       Tag          Charge          X              Y              Z
 ---- ---------------- ---------- -------------- -------------- --------------
    1 C                    6.0000     0.00000000    -1.25185862     0.21743458
    2 C                    6.0000    -0.76846575     0.00000000    -0.14084451
    3 C                    6.0000     0.76846575     0.00000000    -0.14084451
    4 C                    6.0000     0.00000000     1.25185862     0.21743458
    5 H                    1.0000     0.00000000    -2.03964705    -0.56580379
    6 H                    1.0000     0.00000000    -1.48325450     1.30288426
    7 H                    1.0000    -1.11963407     0.00000000    -1.19662089
    8 H                    1.0000     1.11963407     0.00000000    -1.19662089
    9 H                    1.0000     0.00000000     1.48325450     1.30288426
   10 H                    1.0000     0.00000000     2.03964705    -0.56580379

      Atomic Mass 
      ----------- 

      C                 12.000000
      H                  1.007825


 Effective nuclear repulsion energy (a.u.)     114.6843630211

            Nuclear Dipole moment (a.u.) 
            ----------------------------
        X                 Y               Z
 ---------------- ---------------- ----------------
     0.0000000000    -0.0000000000     0.0000000000

      Symmetry information
      --------------------

 Group name             C2v       
 Group number             16
 Group order               4
 No. of unique centers     5

      Symmetry unique atoms

     1    2    5    6    7



                                Z-matrix (autoz)
                                -------- 

 Units are Angstrom for bonds and degrees for angles

      Type          Name      I     J     K     L     M      Value
      ----------- --------  ----- ----- ----- ----- ----- ----------
    1 Stretch                  1     2                       1.51197
    2 Stretch                  1     3                       1.51197
    3 Stretch                  1     5                       1.11089
    4 Stretch                  1     6                       1.10984
    5 Stretch                  2     3                       1.53693
    6 Stretch                  2     4                       1.51197
    7 Stretch                  2     7                       1.11265
    8 Stretch                  3     4                       1.51197
    9 Stretch                  3     8                       1.11265
   10 Stretch                  4     9                       1.10984
   11 Stretch                  4    10                       1.11089
   12 Bend                     1     2     3                59.45236
   13 Bend                     1     2     4               111.78056
   14 Bend                     1     2     7               112.66006
   15 Bend                     1     3     2                59.45236
   16 Bend                     1     3     4               111.78056
   17 Bend                     1     3     8               112.66006
   18 Bend                     2     1     3                61.09528
   19 Bend                     2     1     5               114.83975
   20 Bend                     2     1     6               113.85232
   21 Bend                     2     3     4                59.45236
   22 Bend                     2     3     8               108.39796
   23 Bend                     2     4     3                61.09528
   24 Bend                     2     4     9               113.85232
   25 Bend                     2     4    10               114.83975
   26 Bend                     3     1     5               114.83975
   27 Bend                     3     1     6               113.85232
   28 Bend                     3     2     4                59.45236
   29 Bend                     3     2     7               108.39796
   30 Bend                     3     4     9               113.85232
   31 Bend                     3     4    10               114.83975
   32 Bend                     4     2     7               112.66006
   33 Bend                     4     3     8               112.66006
   34 Bend                     5     1     6               122.79990
   35 Bend                     9     4    10               122.79990
   36 Torsion                  1     2     3     4        -148.05800
   37 Torsion                  1     2     3     8         105.97100
   38 Torsion                  1     2     4     3          29.38382
   39 Torsion                  1     2     4     9         -75.74190
   40 Torsion                  1     2     4    10         135.23811
   41 Torsion                  1     3     2     4         148.05800
   42 Torsion                  1     3     2     7        -105.97100
   43 Torsion                  1     3     4     2         -29.38382
   44 Torsion                  1     3     4     9          75.74190
   45 Torsion                  1     3     4    10        -135.23811
   46 Torsion                  2     1     3     4          29.38382
   47 Torsion                  2     1     3     8         -98.67028
   48 Torsion                  2     3     1     5         105.85428
   49 Torsion                  2     3     1     6        -105.12573
   50 Torsion                  2     3     4     9         105.12573
   51 Torsion                  2     3     4    10        -105.85428
   52 Torsion                  2     4     3     8          98.67028
   53 Torsion                  3     1     2     4         -29.38382
   54 Torsion                  3     1     2     7          98.67028
   55 Torsion                  3     2     1     5        -105.85428
   56 Torsion                  3     2     1     6         105.12573
   57 Torsion                  3     2     4     9        -105.12573
   58 Torsion                  3     2     4    10         105.85428
   59 Torsion                  3     4     2     7         -98.67028
   60 Torsion                  4     2     1     5        -135.23811
   61 Torsion                  4     2     1     6          75.74190
   62 Torsion                  4     2     3     8        -105.97100
   63 Torsion                  4     3     1     5         135.23811
   64 Torsion                  4     3     1     6         -75.74190
   65 Torsion                  4     3     2     7         105.97100
   66 Torsion                  5     1     2     7          -7.18400
   67 Torsion                  5     1     3     8           7.18400
   68 Torsion                  6     1     2     7        -156.20400
   69 Torsion                  6     1     3     8         156.20400
   70 Torsion                  7     2     3     8           0.00000
   71 Torsion                  7     2     4     9         156.20400
   72 Torsion                  7     2     4    10           7.18400
   73 Torsion                  8     3     4     9        -156.20400
   74 Torsion                  8     3     4    10          -7.18400


            XYZ format geometry
            -------------------
    10
 geometry
 C                     0.00000000    -1.25185862     0.21743458
 C                    -0.76846575     0.00000000    -0.14084451
 C                     0.76846575     0.00000000    -0.14084451
 C                     0.00000000     1.25185862     0.21743458
 H                     0.00000000    -2.03964705    -0.56580379
 H                     0.00000000    -1.48325450     1.30288426
 H                    -1.11963407     0.00000000    -1.19662089
 H                     1.11963407     0.00000000    -1.19662089
 H                     0.00000000     1.48325450     1.30288426
 H                     0.00000000     2.03964705    -0.56580379

 ==============================================================================
                                internuclear distances
 ------------------------------------------------------------------------------
       center one      |      center two      | atomic units |  angstroms
 ------------------------------------------------------------------------------
    2 C                |   1 C                |     2.85721  |     1.51197
    3 C                |   1 C                |     2.85721  |     1.51197
    3 C                |   2 C                |     2.90438  |     1.53693
    4 C                |   2 C                |     2.85721  |     1.51197
    4 C                |   3 C                |     2.85721  |     1.51197
    5 H                |   1 C                |     2.09927  |     1.11089
    6 H                |   1 C                |     2.09729  |     1.10984
    7 H                |   2 C                |     2.10260  |     1.11265
    8 H                |   3 C                |     2.10260  |     1.11265
    9 H                |   4 C                |     2.09729  |     1.10984
   10 H                |   4 C                |     2.09927  |     1.11089
 ------------------------------------------------------------------------------
                         number of included internuclear distances:         11
 ==============================================================================



 ==============================================================================
                                 internuclear angles
 ------------------------------------------------------------------------------
        center 1       |       center 2       |       center 3       |  degrees
 ------------------------------------------------------------------------------
    2 C                |   1 C                |   3 C                |    61.10
    2 C                |   1 C                |   5 H                |   114.84
    2 C                |   1 C                |   6 H                |   113.85
    3 C                |   1 C                |   5 H                |   114.84
    3 C                |   1 C                |   6 H                |   113.85
    5 H                |   1 C                |   6 H                |   122.80
    2 C                |   1 C                |   3 C                |    61.10
    1 C                |   2 C                |   4 C                |   111.78
    1 C                |   2 C                |   7 H                |   112.66
    2 C                |   4 C                |   3 C                |    61.10
    3 C                |   2 C                |   7 H                |   108.40
    4 C                |   2 C                |   7 H                |   112.66
    3 C                |   1 C                |   2 C                |    61.10
    1 C                |   3 C                |   4 C                |   111.78
    1 C                |   3 C                |   8 H                |   112.66
    3 C                |   4 C                |   2 C                |    61.10
    2 C                |   3 C                |   8 H                |   108.40
    4 C                |   3 C                |   8 H                |   112.66
    2 C                |   4 C                |   3 C                |    61.10
    2 C                |   4 C                |   9 H                |   113.85
    2 C                |   4 C                |  10 H                |   114.84
    3 C                |   4 C                |   9 H                |   113.85
    3 C                |   4 C                |  10 H                |   114.84
    9 H                |   4 C                |  10 H                |   122.80
 ------------------------------------------------------------------------------
                            number of included internuclear angles:         24
 ==============================================================================





 Summary of "ao basis" -> "" (spherical)
 ------------------------------------------------------------------------------
       Tag                 Description            Shells   Functions and Types
 ---------------- ------------------------------  ------  ---------------------
 *                           6-311G                   on all atoms 




                           NWChem Geometry Optimization
                           ----------------------------




                               Molecule conformer 0


  no constraints, skipping    0.0000000000000000     
 maximum gradient threshold         (gmax) =   0.000450
 rms gradient threshold             (grms) =   0.000300
 maximum cartesian step threshold   (xmax) =   0.001800
 rms cartesian step threshold       (xrms) =   0.001200
 fixed trust radius                (trust) =   0.300000
 maximum step size to saddle      (sadstp) =   0.100000
 energy precision                  (eprec) =   5.0D-06
 maximum number of steps          (nptopt) =  500
 initial hessian option           (inhess) =    0
 line search option               (linopt) =    1
 hessian update option            (modupd) =    1
 saddle point option              (modsad) =    0
 initial eigen-mode to follow     (moddir) =    0
 initial variable to follow       (vardir) =    0
 follow first negative mode     (firstneg) =    T
 apply conjugacy                    (opcg) =    F
 source of zmatrix                         =   autoz   


          -------------------
          Energy Minimization
          -------------------


 Names of Z-matrix variables 
    1              2              3              4              5         
    6              7              8              9             10         
   11             12             13             14             15         
   16             17             18             19             20         
   21             22             23             24             25         
   26             27             28             29             30         
   31             32             33             34             35         
   36             37             38             39             40         
   41             42             43             44             45         
   46             47             48             49             50         
   51             52             53             54             55         
   56             57             58             59             60         
   61             62             63             64             65         
   66             67             68             69             70         
   71             72             73             74         

 Variables with the same non-blank name are constrained to be equal


 Using diagonal initial Hessian 
 Scaling for Hessian diagonals: bonds = 1.00  angles = 0.25  torsions = 0.10

          --------
          Step   0
          --------


                         Geometry "geometry" -> "geometry"
                         ---------------------------------

 Output coordinates in angstroms (scale by  1.889725989 to convert to a.u.)

  No.       Tag          Charge          X              Y              Z
 ---- ---------------- ---------- -------------- -------------- --------------
    1 C                    6.0000     0.00000000    -1.25185862     0.21743458
    2 C                    6.0000    -0.76846575     0.00000000    -0.14084451
    3 C                    6.0000     0.76846575     0.00000000    -0.14084451
    4 C                    6.0000     0.00000000     1.25185862     0.21743458
    5 H                    1.0000     0.00000000    -2.03964705    -0.56580379
    6 H                    1.0000     0.00000000    -1.48325450     1.30288426
    7 H                    1.0000    -1.11963407     0.00000000    -1.19662089
    8 H                    1.0000     1.11963407     0.00000000    -1.19662089
    9 H                    1.0000     0.00000000     1.48325450     1.30288426
   10 H                    1.0000     0.00000000     2.03964705    -0.56580379

      Atomic Mass 
      ----------- 

      C                 12.000000
      H                  1.007825


 Effective nuclear repulsion energy (a.u.)     114.6843630211

            Nuclear Dipole moment (a.u.) 
            ----------------------------
        X                 Y               Z
 ---------------- ---------------- ----------------
     0.0000000000    -0.0000000000     0.0000000000

      Symmetry information
      --------------------

 Group name             C2v       
 Group number             16
 Group order               4
 No. of unique centers     5

      Symmetry unique atoms

     1    2    5    6    7


                                 NWChem DFT Module
                                 -----------------


                               Molecule conformer 0


                      Basis "ao basis" -> "ao basis" (spherical)
                      -----
  C (Carbon)
  ----------
            Exponent  Coefficients 
       -------------- ---------------------------------------------------------
  1 S  4.56324000E+03  0.001967
  1 S  6.82024000E+02  0.015231
  1 S  1.54973000E+02  0.076127
  1 S  4.44553000E+01  0.260801
  1 S  1.30290000E+01  0.616462
  1 S  1.82773000E+00  0.221006

  2 S  2.09642000E+01  0.114660
  2 S  4.80331000E+00  0.919999
  2 S  1.45933000E+00 -0.003031

  3 P  2.09642000E+01  0.040249
  3 P  4.80331000E+00  0.237594
  3 P  1.45933000E+00  0.815854

  4 S  4.83456000E-01  1.000000

  5 P  4.83456000E-01  1.000000

  6 S  1.45585000E-01  1.000000

  7 P  1.45585000E-01  1.000000

  H (Hydrogen)
  ------------
            Exponent  Coefficients 
       -------------- ---------------------------------------------------------
  1 S  3.38650000E+01  0.025494
  1 S  5.09479000E+00  0.190373
  1 S  1.15879000E+00  0.852161

  2 S  3.25840000E-01  1.000000

  3 S  1.02741000E-01  1.000000



 Summary of "ao basis" -> "ao basis" (spherical)
 ------------------------------------------------------------------------------
       Tag                 Description            Shells   Functions and Types
 ---------------- ------------------------------  ------  ---------------------
 C                           6-311G                  7       13   4s3p
 H                           6-311G                  3        3   3s




 Summary of "ao basis" -> "ao basis" (spherical)
 ------------------------------------------------------------------------------
       Tag                 Description            Shells   Functions and Types
 ---------------- ------------------------------  ------  ---------------------
 C                           6-311G                  7       13   4s3p
 H                           6-311G                  3        3   3s


      Symmetry analysis of basis
      --------------------------

        a1         29
        a2          6
        b1         16
        b2         19

  Caching 1-el integrals 

            General Information
            -------------------
          SCF calculation type: DFT
          Wavefunction type:  closed shell.
          No. of atoms     :    10
          No. of electrons :    30
           Alpha electrons :    15
            Beta electrons :    15
          Charge           :     0
          Spin multiplicity:     1
          Use of symmetry is: on ; symmetry adaption is: on 
          Maximum number of iterations: ***
          This is a Direct SCF calculation.
          AO basis - number of functions:    70
                     number of shells:    46
          Convergence on energy requested:  1.00D-06
          Convergence on density requested:  1.00D-05
          Convergence on gradient requested:  5.00D-04

              XC Information
              --------------
                         B3LYP Method XC Potential
                     Hartree-Fock (Exact) Exchange  0.200          
                        Slater Exchange Functional  0.800 local    
                    Becke 1988 Exchange Functional  0.720 non-local
              Lee-Yang-Parr Correlation Functional  0.810          
                  VWN I RPA Correlation Functional  0.190 local    

             Grid Information
             ----------------
          Grid used for XC integration:  fine      
          Radial quadrature: Mura-Knowles        
          Angular quadrature: Lebedev. 
          Tag              B.-S. Rad. Rad. Pts. Rad. Cut. Ang. Pts.
          ---              ---------- --------- --------- ---------
          C                   0.70       70          10.0       590
          H                   0.35       60          11.0       590
          Grid pruning is: on 
          Number of quadrature shells:   320
          Spatial weights used:  Erf1

          Convergence Information
          -----------------------
          Convergence aids based upon iterative change in 
          total energy or number of iterations. 
          Levelshifting, if invoked, occurs when the 
          HOMO/LUMO gap drops below (HL_TOL):  1.00D-02
          DIIS, if invoked, will attempt to extrapolate 
          using up to (NFOCK): 10 stored Fock matrices.

                    Damping( 0%)  Levelshifting(0.5)       DIIS
                  --------------- ------------------- ---------------
          dE  on:    start            ASAP                start   
          dE off:    2 iters        *** iters           *** iters 


      Screening Tolerance Information
      -------------------------------
          Density screening/tol_rho:  1.00D-10
          AO Gaussian exp screening on grid/accAOfunc:  14
          CD Gaussian exp screening on grid/accCDfunc:  20
          XC Gaussian exp screening on grid/accXCfunc:  20
          Schwarz screening/accCoul:  1.00D-08

          Performing ZORA calculations
          ----------------------------


      Superposition of Atomic Density Guess
      -------------------------------------

 Sum of atomic energies:        -153.67306699

 Read atomic ZORA corrections from ./C1C2C1C2_mol_0_conformer_0.zora_sf

 dft_zora_read: failed to open./C1C2C1C2_mol_0_conformer_0.zora_sf
 Forcing recalculation of ZORA corrections
       Generating atomic ZORA corrections
       ----------------------------------

 In dft_scf:: zora:Knucl= F

 Grid_pts file          = ./C1C2C1C2_mol_0_conformer_0.gridpts.00
 Record size in doubles =  12289        No. of grid_pts per rec  =   3070
 Max. records in memory =      3        Max. recs in file   =     13598

 Grid integrated density:      29.999985322025
 Requested integration accuracy:   0.10E-06

 Wrote atomic ZORA corrections to ./C1C2C1C2_mol_0_conformer_0.zora_sf


      Superposition of Atomic Density Guess
      -------------------------------------

 Sum of atomic energies:        -153.67306699

      Non-variational initial energy
      ------------------------------

 Total energy =    -156.684519
 1-e energy   =    -431.544366
 2-e energy   =     160.175485
 HOMO         =      -0.249841
 LUMO         =       0.040430


      Symmetry analysis of molecular orbitals - initial
      -------------------------------------------------

  Numbering of irreducible representations: 

     1 a1          2 a2          3 b1          4 b2      

  Orbital symmetries:

     1 a1          2 b2          3 a1          4 b1          5 a1      
     6 b2          7 b1          8 a1          9 a1         10 b2      
    11 a1         12 b2         13 a2         14 b1         15 a1      
    16 b1         17 a1         18 a1         19 b2         20 b1      
    21 a1         22 b2         23 a2         24 b1         25 a1      

   Time after variat. SCF:      4.3
   Time prior to 1st pass:      4.3
 Grid integrated density:      29.999991398217
 Requested integration accuracy:   0.10E-06

           Memory utilization after 1st SCF pass: 
           Heap Space remaining (MW):      131.03           131029058
          Stack Space remaining (MW):      131.06           131061516

   convergence    iter        energy       DeltaE   RMS-Dens  Diis-err    time
 ---------------- ----- ----------------- --------- --------- ---------  ------
 d= 0,ls=0.0,diis     1   -155.9267127321 -2.71D+02  1.44D-02  5.78D-01     5.8
 Grid integrated density:      29.999992468646
 Requested integration accuracy:   0.10E-06
 d= 0,ls=0.0,diis     2   -155.9699187876 -4.32D-02  8.15D-03  6.91D-02     7.0
 Grid integrated density:      29.999992556073
 Requested integration accuracy:   0.10E-06
 d= 0,ls=0.0,diis     3   -155.9733823027 -3.46D-03  2.21D-03  4.34D-02     8.3
 Grid integrated density:      29.999992588610
 Requested integration accuracy:   0.10E-06
 d= 0,ls=0.0,diis     4   -155.9788460394 -5.46D-03  3.99D-04  4.06D-04     9.7
 Grid integrated density:      29.999992611937
 Requested integration accuracy:   0.10E-06
 d= 0,ls=0.0,diis     5   -155.9788870990 -4.11D-05  1.61D-04  7.44D-05    11.1
 Grid integrated density:      29.999992606869
 Requested integration accuracy:   0.10E-06
  Resetting Diis
 d= 0,ls=0.0,diis     6   -155.9788970562 -9.96D-06  4.71D-05  1.37D-06    12.8
 Grid integrated density:      29.999992606247
 Requested integration accuracy:   0.10E-06
 d= 0,ls=0.0,diis     7   -155.9788972771 -2.21D-07  4.37D-06  1.49D-08    14.5
(nogshift,skip_gshiftAOev,done_Fji)=( 1,F,F)


         Total DFT energy =     -155.978897277059
      One electron energy =     -434.800378503824
           Coulomb energy =      188.030398546922
    Exchange-Corr. energy =      -23.893280341247
 Nuclear repulsion energy =      114.684363021090

       Scaling correction =        0.035100378343

 Numeric. integr. density =       29.999992606247

     Total iterative time =     10.3s



                  Occupations of the irreducible representations
                  ----------------------------------------------

                     irrep           alpha         beta
                     --------     --------     --------
                     a1                7.0          7.0
                     a2                1.0          1.0
                     b1                3.0          3.0
                     b2                4.0          4.0


 center of mass
 --------------
 x =   0.00000000 y =  -0.00000000 z =   0.03188377

 moments of inertia (a.u.)
 ------------------
         210.621337640239           0.000000000000           0.000000000000
           0.000000000000          90.162856996070           0.000000000000
           0.000000000000           0.000000000000         239.730101081875

            General Information
            -------------------
          SCF calculation type: DFT
          Wavefunction type:  closed shell.
          No. of atoms     :    10
          No. of electrons :    30
           Alpha electrons :    15
            Beta electrons :    15
          Charge           :     0
          Spin multiplicity:     1
          Use of symmetry is: on ; symmetry adaption is: on 
          Maximum number of iterations: ***
          This is a Direct SCF calculation.
          AO basis - number of functions:    70
                     number of shells:    46
          Convergence on energy requested:  1.00D-06
          Convergence on density requested:  1.00D-05
          Convergence on gradient requested:  5.00D-04

              XC Information
              --------------
                         B3LYP Method XC Potential
                     Hartree-Fock (Exact) Exchange  0.200          
                        Slater Exchange Functional  0.800 local    
                    Becke 1988 Exchange Functional  0.720 non-local
              Lee-Yang-Parr Correlation Functional  0.810          
                  VWN I RPA Correlation Functional  0.190 local    

             Grid Information
             ----------------
          Grid used for XC integration:  fine      
          Radial quadrature: Mura-Knowles        
          Angular quadrature: Lebedev. 
          Tag              B.-S. Rad. Rad. Pts. Rad. Cut. Ang. Pts.
          ---              ---------- --------- --------- ---------
          C                   0.70       70          10.0       590
          H                   0.35       60          11.0       590
          Grid pruning is: on 
          Number of quadrature shells:   320
          Spatial weights used:  Erf1

          Convergence Information
          -----------------------
          Convergence aids based upon iterative change in 
          total energy or number of iterations. 
          Levelshifting, if invoked, occurs when the 
          HOMO/LUMO gap drops below (HL_TOL):  1.00D-02
          DIIS, if invoked, will attempt to extrapolate 
          using up to (NFOCK): 10 stored Fock matrices.

                    Damping( 0%)  Levelshifting(0.5)       DIIS
                  --------------- ------------------- ---------------
          dE  on:    start            ASAP                start   
          dE off:    2 iters        *** iters           *** iters 


      Screening Tolerance Information
      -------------------------------
          Density screening/tol_rho:  1.00D-10
          AO Gaussian exp screening on grid/accAOfunc:  14
          CD Gaussian exp screening on grid/accCDfunc:  20
          XC Gaussian exp screening on grid/accXCfunc:  20
          Schwarz screening/accCoul:  1.00D-08



                            NWChem DFT Gradient Module
                            --------------------------


                               Molecule conformer 0



  charge          =   0.00
  wavefunction    = closed shell

  Using symmetry


                         DFT ENERGY GRADIENTS

    atom               coordinates                        gradient
                 x          y          z           x          y          z
   1 C       0.000000  -2.365670   0.410892    0.000000  -0.026644  -0.044416
   2 C      -1.452190   0.000000  -0.266158    0.046514   0.000000   0.066166
   3 C       1.452190   0.000000  -0.266158   -0.046514  -0.000000   0.066166
   4 C       0.000000   2.365670   0.410892    0.000000   0.026644  -0.044416
   5 H       0.000000  -3.854374  -1.069214    0.000000  -0.009425  -0.020878
   6 H       0.000000  -2.802945   2.462094    0.000000   0.012187   0.019858
   7 H      -2.115802   0.000000  -2.261286    0.008583   0.000000  -0.020730
   8 H       2.115802   0.000000  -2.261286   -0.008583   0.000000  -0.020730
   9 H       0.000000   2.802945   2.462094   -0.000000  -0.012187   0.019858
  10 H       0.000000   3.854374  -1.069214    0.000000   0.009425  -0.020878

                 ----------------------------------------
                 |  Time  |  1-e(secs)   |  2-e(secs)   |
                 ----------------------------------------
                 |  CPU   |       0.00   |       0.03   |
                 ----------------------------------------
                 |  WALL  |       0.00   |       0.03   |
                 ----------------------------------------
  no constraints, skipping    0.0000000000000000     

@ Step       Energy      Delta E   Gmax     Grms     Xrms     Xmax   Walltime
@ ---- ---------------- -------- -------- -------- -------- -------- --------
@    0    -155.97889728  0.0D+00  0.02140  0.00708  0.00000  0.00000     16.9
                                                                    



                                Z-matrix (autoz)
                                -------- 

 Units are Angstrom for bonds and degrees for angles

      Type          Name      I     J     K     L     M      Value     Gradient
      ----------- --------  ----- ----- ----- ----- ----- ---------- ----------
    1 Stretch                  1     2                       1.51197   -0.00497
    2 Stretch                  1     3                       1.51197   -0.00497
    3 Stretch                  1     5                       1.11089    0.02140
    4 Stretch                  1     6                       1.10984    0.01688
    5 Stretch                  2     3                       1.53693   -0.01781
    6 Stretch                  2     4                       1.51197   -0.00497
    7 Stretch                  2     7                       1.11265    0.01696
    8 Stretch                  3     4                       1.51197   -0.00497
    9 Stretch                  3     8                       1.11265    0.01696
   10 Stretch                  4     9                       1.10984    0.01688
   11 Stretch                  4    10                       1.11089    0.02140
   12 Bend                     1     2     3                59.45236    0.00490
   13 Bend                     1     2     4               111.78056    0.01173
   14 Bend                     1     2     7               112.66006   -0.00584
   15 Bend                     1     3     2                59.45236    0.00490
   16 Bend                     1     3     4               111.78056    0.01173
   17 Bend                     1     3     8               112.66006   -0.00584
   18 Bend                     2     1     3                61.09528   -0.00979
   19 Bend                     2     1     5               114.83975    0.00184
   20 Bend                     2     1     6               113.85232   -0.00154
   21 Bend                     2     3     4                59.45236    0.00490
   22 Bend                     2     3     8               108.39796   -0.00426
   23 Bend                     2     4     3                61.09528   -0.00979
   24 Bend                     2     4     9               113.85232   -0.00154
   25 Bend                     2     4    10               114.83975    0.00184
   26 Bend                     3     1     5               114.83975    0.00184
   27 Bend                     3     1     6               113.85232   -0.00154
   28 Bend                     3     2     4                59.45236    0.00490
   29 Bend                     3     2     7               108.39796   -0.00426
   30 Bend                     3     4     9               113.85232   -0.00154
   31 Bend                     3     4    10               114.83975    0.00184
   32 Bend                     4     2     7               112.66006   -0.00584
   33 Bend                     4     3     8               112.66006   -0.00584
   34 Bend                     5     1     6               122.79990    0.00277
   35 Bend                     9     4    10               122.79990    0.00277
   36 Torsion                  1     2     3     4        -148.05800   -0.00757
   37 Torsion                  1     2     3     8         105.97100   -0.00378
   38 Torsion                  1     2     4     3          29.38382   -0.00257
   39 Torsion                  1     2     4     9         -75.74190    0.00158
   40 Torsion                  1     2     4    10         135.23811   -0.00437
   41 Torsion                  1     3     2     4         148.05800    0.00757
   42 Torsion                  1     3     2     7        -105.97100    0.00378
   43 Torsion                  1     3     4     2         -29.38382    0.00257
   44 Torsion                  1     3     4     9          75.74190   -0.00158
   45 Torsion                  1     3     4    10        -135.23811    0.00437
   46 Torsion                  2     1     3     4          29.38382   -0.00257
   47 Torsion                  2     1     3     8         -98.67028    0.00040
   48 Torsion                  2     3     1     5         105.85428   -0.00180
   49 Torsion                  2     3     1     6        -105.12573    0.00415
   50 Torsion                  2     3     4     9         105.12573   -0.00415
   51 Torsion                  2     3     4    10        -105.85428    0.00180
   52 Torsion                  2     4     3     8          98.67028   -0.00040
   53 Torsion                  3     1     2     4         -29.38382    0.00257
   54 Torsion                  3     1     2     7          98.67028   -0.00040
   55 Torsion                  3     2     1     5        -105.85428    0.00180
   56 Torsion                  3     2     1     6         105.12573   -0.00415
   57 Torsion                  3     2     4     9        -105.12573    0.00415
   58 Torsion                  3     2     4    10         105.85428   -0.00180
   59 Torsion                  3     4     2     7         -98.67028    0.00040
   60 Torsion                  4     2     1     5        -135.23811    0.00437
   61 Torsion                  4     2     1     6          75.74190   -0.00158
   62 Torsion                  4     2     3     8        -105.97100    0.00378
   63 Torsion                  4     3     1     5         135.23811   -0.00437
   64 Torsion                  4     3     1     6         -75.74190    0.00158
   65 Torsion                  4     3     2     7         105.97100   -0.00378
   66 Torsion                  5     1     2     7          -7.18400    0.00140
   67 Torsion                  5     1     3     8           7.18400   -0.00140
   68 Torsion                  6     1     2     7        -156.20400   -0.00455
   69 Torsion                  6     1     3     8         156.20400    0.00455
   70 Torsion                  7     2     3     8           0.00000    0.00000
   71 Torsion                  7     2     4     9         156.20400    0.00455
   72 Torsion                  7     2     4    10           7.18400   -0.00140
   73 Torsion                  8     3     4     9        -156.20400   -0.00455
   74 Torsion                  8     3     4    10          -7.18400    0.00140

 Restricting large step in mode    7 eval= 3.6D-02 step= 4.3D-01 new= 3.0D-01
 Restricting large step in mode   12 eval= 4.3D-02 step=-3.5D-01 new=-3.0D-01
  no constraints, skipping    0.0000000000000000     
  no constraints, skipping    0.0000000000000000     
  no constraints, skipping    0.0000000000000000     
  no constraints, skipping    0.0000000000000000     
  no constraints, skipping    0.0000000000000000     
  no constraints, skipping    0.0000000000000000     
  no constraints, skipping    0.0000000000000000     
  no constraints, skipping    0.0000000000000000     

                                 NWChem DFT Module
                                 -----------------


                               Molecule conformer 0




 Summary of "ao basis" -> "ao basis" (spherical)
 ------------------------------------------------------------------------------
       Tag                 Description            Shells   Functions and Types
 ---------------- ------------------------------  ------  ---------------------
 C                           6-311G                  7       13   4s3p
 H                           6-311G                  3        3   3s


      Symmetry analysis of basis
      --------------------------

        a1         29
        a2          6
        b1         16
        b2         19

  Caching 1-el integrals 

            General Information
            -------------------
          SCF calculation type: DFT
          Wavefunction type:  closed shell.
          No. of atoms     :    10
          No. of electrons :    30
           Alpha electrons :    15
            Beta electrons :    15
          Charge           :     0
          Spin multiplicity:     1
          Use of symmetry is: on ; symmetry adaption is: on 
          Maximum number of iterations: ***
          This is a Direct SCF calculation.
          AO basis - number of functions:    70
                     number of shells:    46
          Convergence on energy requested:  1.00D-06
          Convergence on density requested:  1.00D-05
          Convergence on gradient requested:  5.00D-04

              XC Information
              --------------
                         B3LYP Method XC Potential
                     Hartree-Fock (Exact) Exchange  0.200          
                        Slater Exchange Functional  0.800 local    
                    Becke 1988 Exchange Functional  0.720 non-local
              Lee-Yang-Parr Correlation Functional  0.810          
                  VWN I RPA Correlation Functional  0.190 local    

             Grid Information
             ----------------
          Grid used for XC integration:  fine      
          Radial quadrature: Mura-Knowles        
          Angular quadrature: Lebedev. 
          Tag              B.-S. Rad. Rad. Pts. Rad. Cut. Ang. Pts.
          ---              ---------- --------- --------- ---------
          C                   0.70       70          10.0       590
          H                   0.35       60          11.0       590
          Grid pruning is: on 
          Number of quadrature shells:   320
          Spatial weights used:  Erf1

          Convergence Information
          -----------------------
          Convergence aids based upon iterative change in 
          total energy or number of iterations. 
          Levelshifting, if invoked, occurs when the 
          HOMO/LUMO gap drops below (HL_TOL):  1.00D-02
          DIIS, if invoked, will attempt to extrapolate 
          using up to (NFOCK): 10 stored Fock matrices.

                    Damping( 0%)  Levelshifting(0.5)       DIIS
                  --------------- ------------------- ---------------
          dE  on:    start            ASAP                start   
          dE off:    2 iters        *** iters           *** iters 


      Screening Tolerance Information
      -------------------------------
          Density screening/tol_rho:  1.00D-10
          AO Gaussian exp screening on grid/accAOfunc:  14
          CD Gaussian exp screening on grid/accCDfunc:  20
          XC Gaussian exp screening on grid/accXCfunc:  20
          Schwarz screening/accCoul:  1.00D-08

          Performing ZORA calculations
          ----------------------------


      Superposition of Atomic Density Guess
      -------------------------------------

 Sum of atomic energies:        -153.67306699

 Read atomic ZORA corrections from ./C1C2C1C2_mol_0_conformer_0.zora_sf

 Forcing recalculation of ZORA corrections
       Generating atomic ZORA corrections
       ----------------------------------

 In dft_scf:: zora:Knucl= F

 Grid_pts file          = ./C1C2C1C2_mol_0_conformer_0.gridpts.00
 Record size in doubles =  12289        No. of grid_pts per rec  =   3070
 Max. records in memory =      3        Max. recs in file   =     13598

 Grid integrated density:      29.999992837512
 Requested integration accuracy:   0.10E-06

 Wrote atomic ZORA corrections to ./C1C2C1C2_mol_0_conformer_0.zora_sf


 Loading old vectors from job with title :

Molecule conformer 0


      Symmetry analysis of molecular orbitals - initial
      -------------------------------------------------

  Numbering of irreducible representations: 

     1 a1          2 a2          3 b1          4 b2      

  Orbital symmetries:

     1 b2          2 a1          3 a1          4 b1          5 a1      
     6 b2          7 a1          8 b1          9 a1         10 b2      
    11 b2         12 a1         13 a2         14 b1         15 a1      
    16 a1         17 b1         18 a1         19 b2         20 b1      
    21 b2         22 a1         23 a2         24 b1         25 a1      

   Time after variat. SCF:     24.2
   Time prior to 1st pass:     24.2

           Memory utilization after 1st SCF pass: 
           Heap Space remaining (MW):      131.03           131029058
          Stack Space remaining (MW):      131.06           131061516

   convergence    iter        energy       DeltaE   RMS-Dens  Diis-err    time
 ---------------- ----- ----------------- --------- --------- ---------  ------
 d= 0,ls=0.0,diis     1   -155.9945605868 -2.71D+02  3.38D-03  2.05D-02    26.0
 d= 0,ls=0.0,diis     2   -155.9978978575 -3.34D-03  7.87D-04  1.96D-03    28.1
 d= 0,ls=0.0,diis     3   -155.9979744361 -7.66D-05  3.88D-04  1.51D-03    29.3
 d= 0,ls=0.0,diis     4   -155.9981664509 -1.92D-04  4.14D-05  7.00D-06    30.5
 d= 0,ls=0.0,diis     5   -155.9981669732 -5.22D-07  2.29D-05  2.71D-06    32.2
 d= 0,ls=0.0,diis     6   -155.9981673180 -3.45D-07  5.43D-06  3.95D-08    33.9
(nogshift,skip_gshiftAOev,done_Fji)=( 1,F,F)


         Total DFT energy =     -155.998167317992
      One electron energy =     -435.543373478286
           Coulomb energy =      188.455460431432
    Exchange-Corr. energy =      -23.946383144109
 Nuclear repulsion energy =      115.036128872971

       Scaling correction =        0.035077383064

 Numeric. integr. density =       29.999997197050

     Total iterative time =      9.8s



                  Occupations of the irreducible representations
                  ----------------------------------------------

                     irrep           alpha         beta
                     --------     --------     --------
                     a1                7.0          7.0
                     a2                1.0          1.0
                     b1                3.0          3.0
                     b2                4.0          4.0


 center of mass
 --------------
 x =   0.00000000 y =   0.00000000 z =   0.00505230

 moments of inertia (a.u.)
 ------------------
         202.551377019450           0.000000000000           0.000000000000
           0.000000000000          95.392189900445           0.000000000000
           0.000000000000           0.000000000000         235.880081125761
 Line search: 
     step= 1.00 grad=-2.6D-02 hess= 7.1D-03 energy=   -155.998167 mode=downhill
 new step= 1.87                   predicted energy=   -156.003452
  no constraints, skipping    0.0000000000000000     
  no constraints, skipping    0.0000000000000000     
  no constraints, skipping    0.0000000000000000     
  no constraints, skipping    0.0000000000000000     
  no constraints, skipping    0.0000000000000000     
  no constraints, skipping    0.0000000000000000     
  no constraints, skipping    0.0000000000000000     
  no constraints, skipping    0.0000000000000000     

          --------
          Step   1
          --------


                         Geometry "geometry" -> "geometry"
                         ---------------------------------

 Output coordinates in angstroms (scale by  1.889725989 to convert to a.u.)

  No.       Tag          Charge          X              Y              Z
 ---- ---------------- ---------- -------------- -------------- --------------
    1 C                    6.0000     0.00000000    -1.18878372     0.22569447
    2 C                    6.0000    -0.82190438     0.00000000    -0.21492795
    3 C                    6.0000     0.82190438     0.00000000    -0.21492795
    4 C                    6.0000     0.00000000     1.18878372     0.22569447
    5 H                    1.0000     0.00000000    -1.98865143    -0.45045605
    6 H                    1.0000     0.00000000    -1.41333686     1.26147305
    7 H                    1.0000    -1.20714418     0.00000000    -1.20473388
    8 H                    1.0000     1.20714418     0.00000000    -1.20473388
    9 H                    1.0000     0.00000000     1.41333686     1.26147305
   10 H                    1.0000     0.00000000     1.98865143    -0.45045605

      Atomic Mass 
      ----------- 

      C                 12.000000
      H                  1.007825


 Effective nuclear repulsion energy (a.u.)     115.4179915736

            Nuclear Dipole moment (a.u.) 
            ----------------------------
        X                 Y               Z
 ---------------- ---------------- ----------------
     0.0000000000    -0.0000000000    -1.2438847804

      Symmetry information
      --------------------

 Group name             C2v       
 Group number             16
 Group order               4
 No. of unique centers     5

      Symmetry unique atoms

     1    2    5    6    7


                                 NWChem DFT Module
                                 -----------------


                               Molecule conformer 0




 Summary of "ao basis" -> "ao basis" (spherical)
 ------------------------------------------------------------------------------
       Tag                 Description            Shells   Functions and Types
 ---------------- ------------------------------  ------  ---------------------
 C                           6-311G                  7       13   4s3p
 H                           6-311G                  3        3   3s


      Symmetry analysis of basis
      --------------------------

        a1         29
        a2          6
        b1         16
        b2         19

  Caching 1-el integrals 

            General Information
            -------------------
          SCF calculation type: DFT
          Wavefunction type:  closed shell.
          No. of atoms     :    10
          No. of electrons :    30
           Alpha electrons :    15
            Beta electrons :    15
          Charge           :     0
          Spin multiplicity:     1
          Use of symmetry is: on ; symmetry adaption is: on 
          Maximum number of iterations: ***
          This is a Direct SCF calculation.
          AO basis - number of functions:    70
                     number of shells:    46
          Convergence on energy requested:  1.00D-06
          Convergence on density requested:  1.00D-05
          Convergence on gradient requested:  5.00D-04

              XC Information
              --------------
                         B3LYP Method XC Potential
                     Hartree-Fock (Exact) Exchange  0.200          
                        Slater Exchange Functional  0.800 local    
                    Becke 1988 Exchange Functional  0.720 non-local
              Lee-Yang-Parr Correlation Functional  0.810          
                  VWN I RPA Correlation Functional  0.190 local    

             Grid Information
             ----------------
          Grid used for XC integration:  fine      
          Radial quadrature: Mura-Knowles        
          Angular quadrature: Lebedev. 
          Tag              B.-S. Rad. Rad. Pts. Rad. Cut. Ang. Pts.
          ---              ---------- --------- --------- ---------
          C                   0.70       70          10.0       590
          H                   0.35       60          11.0       590
          Grid pruning is: on 
          Number of quadrature shells:   320
          Spatial weights used:  Erf1

          Convergence Information
          -----------------------
          Convergence aids based upon iterative change in 
          total energy or number of iterations. 
          Levelshifting, if invoked, occurs when the 
          HOMO/LUMO gap drops below (HL_TOL):  1.00D-02
          DIIS, if invoked, will attempt to extrapolate 
          using up to (NFOCK): 10 stored Fock matrices.

                    Damping( 0%)  Levelshifting(0.5)       DIIS
                  --------------- ------------------- ---------------
          dE  on:    start            ASAP                start   
          dE off:    2 iters        *** iters           *** iters 


      Screening Tolerance Information
      -------------------------------
          Density screening/tol_rho:  1.00D-10
          AO Gaussian exp screening on grid/accAOfunc:  14
          CD Gaussian exp screening on grid/accCDfunc:  20
          XC Gaussian exp screening on grid/accXCfunc:  20
          Schwarz screening/accCoul:  1.00D-08

          Performing ZORA calculations
          ----------------------------


      Superposition of Atomic Density Guess
      -------------------------------------

 Sum of atomic energies:        -153.67306699

 Read atomic ZORA corrections from ./C1C2C1C2_mol_0_conformer_0.zora_sf

 Forcing recalculation of ZORA corrections
       Generating atomic ZORA corrections
       ----------------------------------

 In dft_scf:: zora:Knucl= F

 Grid_pts file          = ./C1C2C1C2_mol_0_conformer_0.gridpts.00
 Record size in doubles =  12289        No. of grid_pts per rec  =   3070
 Max. records in memory =      3        Max. recs in file   =     13588


 Wrote atomic ZORA corrections to ./C1C2C1C2_mol_0_conformer_0.zora_sf


 Loading old vectors from job with title :

Molecule conformer 0


      Symmetry analysis of molecular orbitals - initial
      -------------------------------------------------

  Numbering of irreducible representations: 

     1 a1          2 a2          3 b1          4 b2      

  Orbital symmetries:

     1 b2          2 a1          3 a1          4 b1          5 a1      
     6 b2          7 a1          8 b1          9 a1         10 b2      
    11 a1         12 b2         13 a2         14 b1         15 a1      
    16 b1         17 a1         18 a1         19 b2         20 b1      
    21 b2         22 a1         23 b1         24 a2         25 b2      

   Time after variat. SCF:     39.9
   Time prior to 1st pass:     39.9

           Memory utilization after 1st SCF pass: 
           Heap Space remaining (MW):      131.03           131029058
          Stack Space remaining (MW):      131.06           131061516

   convergence    iter        energy       DeltaE   RMS-Dens  Diis-err    time
 ---------------- ----- ----------------- --------- --------- ---------  ------
 d= 0,ls=0.0,diis     1   -156.0005972042 -2.71D+02  2.54D-03  1.49D-02    42.0
 d= 0,ls=0.0,diis     2   -156.0030674568 -2.47D-03  6.41D-04  1.30D-03    43.6
 d= 0,ls=0.0,diis     3   -156.0031207407 -5.33D-05  3.06D-04  9.84D-04    45.4
 d= 0,ls=0.0,diis     4   -156.0032455868 -1.25D-04  3.46D-05  4.58D-06    46.7
 d= 0,ls=0.0,diis     5   -156.0032459735 -3.87D-07  1.62D-05  1.47D-06    48.1
 d= 0,ls=0.0,diis     6   -156.0032461579 -1.84D-07  4.28D-06  3.33D-08    50.2
(nogshift,skip_gshiftAOev,done_Fji)=( 1,F,F)


         Total DFT energy =     -156.003246157876
      One electron energy =     -436.314260582636
           Coulomb energy =      188.888827572035
    Exchange-Corr. energy =      -23.995804720847
 Nuclear repulsion energy =      115.417991573572

       Scaling correction =        0.035057489212

 Numeric. integr. density =       30.000000838287

     Total iterative time =     10.4s



                  Occupations of the irreducible representations
                  ----------------------------------------------

                     irrep           alpha         beta
                     --------     --------     --------
                     a1                7.0          7.0
                     a2                1.0          1.0
                     b1                3.0          3.0
                     b2                4.0          4.0


 center of mass
 --------------
 x =   0.00000000 y =   0.00000000 z =  -0.01871298

 moments of inertia (a.u.)
 ------------------
         195.631850401598           0.000000000000           0.000000000000
           0.000000000000         100.053088322485           0.000000000000
           0.000000000000           0.000000000000         232.349401359062

            General Information
            -------------------
          SCF calculation type: DFT
          Wavefunction type:  closed shell.
          No. of atoms     :    10
          No. of electrons :    30
           Alpha electrons :    15
            Beta electrons :    15
          Charge           :     0
          Spin multiplicity:     1
          Use of symmetry is: on ; symmetry adaption is: on 
          Maximum number of iterations: ***
          This is a Direct SCF calculation.
          AO basis - number of functions:    70
                     number of shells:    46
          Convergence on energy requested:  1.00D-06
          Convergence on density requested:  1.00D-05
          Convergence on gradient requested:  5.00D-04

              XC Information
              --------------
                         B3LYP Method XC Potential
                     Hartree-Fock (Exact) Exchange  0.200          
                        Slater Exchange Functional  0.800 local    
                    Becke 1988 Exchange Functional  0.720 non-local
              Lee-Yang-Parr Correlation Functional  0.810          
                  VWN I RPA Correlation Functional  0.190 local    

             Grid Information
             ----------------
          Grid used for XC integration:  fine      
          Radial quadrature: Mura-Knowles        
          Angular quadrature: Lebedev. 
          Tag              B.-S. Rad. Rad. Pts. Rad. Cut. Ang. Pts.
          ---              ---------- --------- --------- ---------
          C                   0.70       70          10.0       590
          H                   0.35       60          11.0       590
          Grid pruning is: on 
          Number of quadrature shells:   320
          Spatial weights used:  Erf1

          Convergence Information
          -----------------------
          Convergence aids based upon iterative change in 
          total energy or number of iterations. 
          Levelshifting, if invoked, occurs when the 
          HOMO/LUMO gap drops below (HL_TOL):  1.00D-02
          DIIS, if invoked, will attempt to extrapolate 
          using up to (NFOCK): 10 stored Fock matrices.

                    Damping( 0%)  Levelshifting(0.5)       DIIS
                  --------------- ------------------- ---------------
          dE  on:    start            ASAP                start   
          dE off:    2 iters        *** iters           *** iters 


      Screening Tolerance Information
      -------------------------------
          Density screening/tol_rho:  1.00D-10
          AO Gaussian exp screening on grid/accAOfunc:  14
          CD Gaussian exp screening on grid/accCDfunc:  20
          XC Gaussian exp screening on grid/accXCfunc:  20
          Schwarz screening/accCoul:  1.00D-08



                            NWChem DFT Gradient Module
                            --------------------------


                               Molecule conformer 0



  charge          =   0.00
  wavefunction    = closed shell

  Using symmetry


                         DFT ENERGY GRADIENTS

    atom               coordinates                        gradient
                 x          y          z           x          y          z
   1 C       0.000000  -2.246475   0.426501    0.000000  -0.038533  -0.015724
   2 C      -1.553174   0.000000  -0.406155   -0.012943   0.000000   0.010020
   3 C       1.553174   0.000000  -0.406155    0.012943  -0.000000   0.010020
   4 C       0.000000   2.246475   0.426501    0.000000   0.038533  -0.015724
   5 H       0.000000  -3.758006  -0.851238    0.000000   0.024669   0.010390
   6 H       0.000000  -2.670819   2.383838    0.000000   0.009650  -0.015183
   7 H      -2.281172   0.000000  -2.276617    0.010984   0.000000   0.010497
   8 H       2.281172   0.000000  -2.276617   -0.010984   0.000000   0.010497
   9 H       0.000000   2.670819   2.383838    0.000000  -0.009650  -0.015183
  10 H       0.000000   3.758006  -0.851238   -0.000000  -0.024669   0.010390

                 ----------------------------------------
                 |  Time  |  1-e(secs)   |  2-e(secs)   |
                 ----------------------------------------
                 |  CPU   |       0.00   |       0.03   |
                 ----------------------------------------
                 |  WALL  |       0.00   |       0.03   |
                 ----------------------------------------
  no constraints, skipping    0.0000000000000000     

  Step       Energy      Delta E   Gmax     Grms     Xrms     Xmax   Walltime
  ---- ---------------- -------- -------- -------- -------- -------- --------
@    1    -156.00324616 -2.4D-02  0.02555  0.00569  0.10091  0.21833     51.7
                                                                    



                                Z-matrix (autoz)
                                -------- 

 Units are Angstrom for bonds and degrees for angles

      Type          Name      I     J     K     L     M      Value     Gradient
      ----------- --------  ----- ----- ----- ----- ----- ---------- ----------
    1 Stretch                  1     2                       1.51092   -0.00067
    2 Stretch                  1     3                       1.51092   -0.00067
    3 Stretch                  1     5                       1.04736   -0.02555
    4 Stretch                  1     6                       1.05984   -0.01688
    5 Stretch                  2     3                       1.64381   -0.00049
    6 Stretch                  2     4                       1.51092   -0.00067
    7 Stretch                  2     7                       1.06213   -0.01377
    8 Stretch                  3     4                       1.51092   -0.00067
    9 Stretch                  3     8                       1.06213   -0.01377
   10 Stretch                  4     9                       1.05984   -0.01688
   11 Stretch                  4    10                       1.04736   -0.02555
   12 Bend                     1     2     3                57.04530   -0.00009
   13 Bend                     1     2     4               103.77385    0.00123
   14 Bend                     1     2     7               117.97388   -0.00173
   15 Bend                     1     3     2                57.04530   -0.00009
   16 Bend                     1     3     4               103.77385    0.00123
   17 Bend                     1     3     8               117.97388   -0.00173
   18 Bend                     2     1     3                65.90940    0.00018
   19 Bend                     2     1     5               114.36869   -0.00082
   20 Bend                     2     1     6               116.85319   -0.00127
   21 Bend                     2     3     4                57.04530   -0.00009
   22 Bend                     2     3     8               111.26636   -0.00117
   23 Bend                     2     4     3                65.90940    0.00018
   24 Bend                     2     4     9               116.85319   -0.00127
   25 Bend                     2     4    10               114.36869   -0.00082
   26 Bend                     3     1     5               114.36869   -0.00082
   27 Bend                     3     1     6               116.85319   -0.00127
   28 Bend                     3     2     4                57.04530   -0.00009
   29 Bend                     3     2     7               111.26636   -0.00117
   30 Bend                     3     4     9               116.85319   -0.00127
   31 Bend                     3     4    10               114.36869   -0.00082
   32 Bend                     4     2     7               117.97388   -0.00173
   33 Bend                     4     3     8               117.97388   -0.00173
   34 Bend                     5     1     6               117.97654    0.00256
   35 Bend                     9     4    10               117.97654    0.00256
   36 Torsion                  1     2     3     4        -139.32557   -0.00292
   37 Torsion                  1     2     3     8         110.33721   -0.00146
   38 Torsion                  1     2     4     3          34.26941   -0.00215
   39 Torsion                  1     2     4     9         -74.89182   -0.00112
   40 Torsion                  1     2     4    10         141.34588   -0.00275
   41 Torsion                  1     3     2     4         139.32557    0.00292
   42 Torsion                  1     3     2     7        -110.33721    0.00146
   43 Torsion                  1     3     4     2         -34.26941    0.00215
   44 Torsion                  1     3     4     9          74.89182    0.00112
   45 Torsion                  1     3     4    10        -141.34588    0.00275
   46 Torsion                  2     1     3     4          34.26941   -0.00215
   47 Torsion                  2     1     3     8         -98.34415    0.00053
   48 Torsion                  2     3     1     5         107.07647   -0.00061
   49 Torsion                  2     3     1     6        -109.16123    0.00103
   50 Torsion                  2     3     4     9         109.16123   -0.00103
   51 Torsion                  2     3     4    10        -107.07647    0.00061
   52 Torsion                  2     4     3     8          98.34415   -0.00053
   53 Torsion                  3     1     2     4         -34.26941    0.00215
   54 Torsion                  3     1     2     7          98.34415   -0.00053
   55 Torsion                  3     2     1     5        -107.07647    0.00061
   56 Torsion                  3     2     1     6         109.16123   -0.00103
   57 Torsion                  3     2     4     9        -109.16123    0.00103
   58 Torsion                  3     2     4    10         107.07647   -0.00061
   59 Torsion                  3     4     2     7         -98.34415    0.00053
   60 Torsion                  4     2     1     5        -141.34588    0.00275
   61 Torsion                  4     2     1     6          74.89182    0.00112
   62 Torsion                  4     2     3     8        -110.33721    0.00146
   63 Torsion                  4     3     1     5         141.34588   -0.00275
   64 Torsion                  4     3     1     6         -74.89182   -0.00112
   65 Torsion                  4     3     2     7         110.33721   -0.00146
   66 Torsion                  5     1     2     7          -8.73231    0.00007
   67 Torsion                  5     1     3     8           8.73231   -0.00007
   68 Torsion                  6     1     2     7        -152.49461   -0.00156
   69 Torsion                  6     1     3     8         152.49461    0.00156
   70 Torsion                  7     2     3     8           0.00000    0.00000
   71 Torsion                  7     2     4     9         152.49461    0.00156
   72 Torsion                  7     2     4    10           8.73231   -0.00007
   73 Torsion                  8     3     4     9        -152.49461   -0.00156
   74 Torsion                  8     3     4    10          -8.73231    0.00007

 Restricting large step in mode    1 eval= 2.0D-02 step= 4.7D-01 new= 3.0D-01
  no constraints, skipping    0.0000000000000000     
  no constraints, skipping    0.0000000000000000     
  no constraints, skipping    0.0000000000000000     
  no constraints, skipping    0.0000000000000000     
  no constraints, skipping    0.0000000000000000     
  no constraints, skipping    0.0000000000000000     
  no constraints, skipping    0.0000000000000000     
  no constraints, skipping    0.0000000000000000     

                                 NWChem DFT Module
                                 -----------------


                               Molecule conformer 0




 Summary of "ao basis" -> "ao basis" (spherical)
 ------------------------------------------------------------------------------
       Tag                 Description            Shells   Functions and Types
 ---------------- ------------------------------  ------  ---------------------
 C                           6-311G                  7       13   4s3p
 H                           6-311G                  3        3   3s


      Symmetry analysis of basis
      --------------------------

        a1         29
        a2          6
        b1         16
        b2         19

  Caching 1-el integrals 

            General Information
            -------------------
          SCF calculation type: DFT
          Wavefunction type:  closed shell.
          No. of atoms     :    10
          No. of electrons :    30
           Alpha electrons :    15
            Beta electrons :    15
          Charge           :     0
          Spin multiplicity:     1
          Use of symmetry is: on ; symmetry adaption is: on 
          Maximum number of iterations: ***
          This is a Direct SCF calculation.
          AO basis - number of functions:    70
                     number of shells:    46
          Convergence on energy requested:  1.00D-06
          Convergence on density requested:  1.00D-05
          Convergence on gradient requested:  5.00D-04

              XC Information
              --------------
                         B3LYP Method XC Potential
                     Hartree-Fock (Exact) Exchange  0.200          
                        Slater Exchange Functional  0.800 local    
                    Becke 1988 Exchange Functional  0.720 non-local
              Lee-Yang-Parr Correlation Functional  0.810          
                  VWN I RPA Correlation Functional  0.190 local    

             Grid Information
             ----------------
          Grid used for XC integration:  fine      
          Radial quadrature: Mura-Knowles        
          Angular quadrature: Lebedev. 
          Tag              B.-S. Rad. Rad. Pts. Rad. Cut. Ang. Pts.
          ---              ---------- --------- --------- ---------
          C                   0.70       70          10.0       590
          H                   0.35       60          11.0       590
          Grid pruning is: on 
          Number of quadrature shells:   320
          Spatial weights used:  Erf1

          Convergence Information
          -----------------------
          Convergence aids based upon iterative change in 
          total energy or number of iterations. 
          Levelshifting, if invoked, occurs when the 
          HOMO/LUMO gap drops below (HL_TOL):  1.00D-02
          DIIS, if invoked, will attempt to extrapolate 
          using up to (NFOCK): 10 stored Fock matrices.

                    Damping( 0%)  Levelshifting(0.5)       DIIS
                  --------------- ------------------- ---------------
          dE  on:    start            ASAP                start   
          dE off:    2 iters        *** iters           *** iters 


      Screening Tolerance Information
      -------------------------------
          Density screening/tol_rho:  1.00D-10
          AO Gaussian exp screening on grid/accAOfunc:  14
          CD Gaussian exp screening on grid/accCDfunc:  20
          XC Gaussian exp screening on grid/accXCfunc:  20
          Schwarz screening/accCoul:  1.00D-08

          Performing ZORA calculations
          ----------------------------


      Superposition of Atomic Density Guess
      -------------------------------------

 Sum of atomic energies:        -153.67306699

 Read atomic ZORA corrections from ./C1C2C1C2_mol_0_conformer_0.zora_sf

 Forcing recalculation of ZORA corrections
       Generating atomic ZORA corrections
       ----------------------------------

 In dft_scf:: zora:Knucl= F

 Grid_pts file          = ./C1C2C1C2_mol_0_conformer_0.gridpts.00
 Record size in doubles =  12289        No. of grid_pts per rec  =   3070
 Max. records in memory =      3        Max. recs in file   =     13598


 Wrote atomic ZORA corrections to ./C1C2C1C2_mol_0_conformer_0.zora_sf


 Loading old vectors from job with title :

Molecule conformer 0


      Symmetry analysis of molecular orbitals - initial
      -------------------------------------------------

  Numbering of irreducible representations: 

     1 a1          2 a2          3 b1          4 b2      

  Orbital symmetries:

     1 a1          2 b1          3 b2          4 a1          5 a1      
     6 b2          7 b1          8 a1          9 a1         10 b2      
    11 a1         12 b2         13 a2         14 b1         15 a1      
    16 b1         17 a1         18 a1         19 b2         20 b1      
    21 b2         22 a1         23 b1         24 a2         25 b2      

   Time after variat. SCF:     58.3
   Time prior to 1st pass:     58.3

           Memory utilization after 1st SCF pass: 
           Heap Space remaining (MW):      131.03           131029058
          Stack Space remaining (MW):      131.06           131061516

   convergence    iter        energy       DeltaE   RMS-Dens  Diis-err    time
 ---------------- ----- ----------------- --------- --------- ---------  ------
 d= 0,ls=0.0,diis     1   -156.0080439412 -2.71D+02  1.93D-03  7.03D-03    60.6
 d= 0,ls=0.0,diis     2   -156.0089726238 -9.29D-04  7.34D-04  1.52D-03    62.6
 d= 0,ls=0.0,diis     3   -156.0090816445 -1.09D-04  2.32D-04  7.30D-04    64.2
 d= 0,ls=0.0,diis     4   -156.0091703468 -8.87D-05  5.03D-05  3.94D-06    65.8
 d= 0,ls=0.0,diis     5   -156.0091707844 -4.38D-07  1.56D-05  9.71D-07    68.0
 d= 0,ls=0.0,diis     6   -156.0091709099 -1.25D-07  6.38D-06  1.96D-08    69.8
(nogshift,skip_gshiftAOev,done_Fji)=( 1,F,F)


         Total DFT energy =     -156.009170909869
      One electron energy =     -434.966031889424
           Coulomb energy =      188.195596498302
    Exchange-Corr. energy =      -23.941889229531
 Nuclear repulsion energy =      114.703153710784

       Scaling correction =        0.035068235341

 Numeric. integr. density =       29.999999074440

     Total iterative time =     11.6s



                  Occupations of the irreducible representations
                  ----------------------------------------------

                     irrep           alpha         beta
                     --------     --------     --------
                     a1                7.0          7.0
                     a2                1.0          1.0
                     b1                3.0          3.0
                     b2                4.0          4.0


 center of mass
 --------------
 x =   0.00000000 y =   0.00000000 z =  -0.02901367

 moments of inertia (a.u.)
 ------------------
         196.080182174192           0.000000000000           0.000000000000
           0.000000000000         102.964672767529           0.000000000000
           0.000000000000           0.000000000000         232.074636325049
 Line search: 
     step= 1.00 grad=-8.6D-03 hess= 2.7D-03 energy=   -156.009171 mode=downhill
 new step= 1.62                   predicted energy=   -156.010181
  no constraints, skipping    0.0000000000000000     
  no constraints, skipping    0.0000000000000000     
  no constraints, skipping    0.0000000000000000     
  no constraints, skipping    0.0000000000000000     
  no constraints, skipping    0.0000000000000000     
  no constraints, skipping    0.0000000000000000     
  no constraints, skipping    0.0000000000000000     
  no constraints, skipping    0.0000000000000000     

          --------
          Step   2
          --------


                         Geometry "geometry" -> "geometry"
                         ---------------------------------

 Output coordinates in angstroms (scale by  1.889725989 to convert to a.u.)

  No.       Tag          Charge          X              Y              Z
 ---- ---------------- ---------- -------------- -------------- --------------
    1 C                    6.0000     0.00000000    -1.17097927     0.23588024
    2 C                    6.0000    -0.82848290     0.00000000    -0.24745747
    3 C                    6.0000     0.82848290     0.00000000    -0.24745747
    4 C                    6.0000     0.00000000     1.17097927     0.23588024
    5 H                    1.0000     0.00000000    -2.04407781    -0.42693299
    6 H                    1.0000     0.00000000    -1.40084281     1.30203439
    7 H                    1.0000    -1.25374681     0.00000000    -1.24647452
    8 H                    1.0000     1.25374681     0.00000000    -1.24647452
    9 H                    1.0000     0.00000000     1.40084281     1.30203439
   10 H                    1.0000     0.00000000     2.04407781    -0.42693299

      Atomic Mass 
      ----------- 

      C                 12.000000
      H                  1.007825


 Effective nuclear repulsion energy (a.u.)     114.2763981493

            Nuclear Dipole moment (a.u.) 
            ----------------------------
        X                 Y               Z
 ---------------- ---------------- ----------------
     0.0000000000     0.0000000000    -1.6661204327

      Symmetry information
[...]
(dia2,par1)(k,t,iat1,spin)=(  2,  2,  9,  1)=(     6.37473181,     6.37473181,     1.14731237,     1.14731237) ppm
(dia2,par1)(k,t,iat1,spin)=(  3,  2,  9,  1)=(    -0.73633351,    -0.73633351,     2.30573524,     2.30573524) ppm
(dia2,par1)(k,t,iat1,spin)=(  1,  3,  9,  1)=(     0.00003548,     0.00003548,     0.00121038,     0.00121038) ppm
(dia2,par1)(k,t,iat1,spin)=(  2,  3,  9,  1)=(    -2.25446216,    -2.25446216,    -0.47446677,    -0.47446677) ppm
(dia2,par1)(k,t,iat1,spin)=(  3,  3,  9,  1)=(    -0.79162790,    -0.79162790,    -2.70439245,    -2.70439245) ppm
 Grid integrated density:      30.000003891041
 Requested integration accuracy:   0.10E-06
dia1(k,t,iat1,ispin)=(  1,  1, 10,  1)=(    18.12675318,    18.12675318) ppm
dia1(k,t,iat1,ispin)=(  1,  2, 10,  1)=(     0.00237537,     0.00237537) ppm
dia1(k,t,iat1,ispin)=(  1,  3, 10,  1)=(     0.00194247,     0.00194247) ppm
dia1(k,t,iat1,ispin)=(  2,  1, 10,  1)=(     0.00431615,     0.00431615) ppm
dia1(k,t,iat1,ispin)=(  2,  2, 10,  1)=(    39.10179030,    39.10179030) ppm
dia1(k,t,iat1,ispin)=(  2,  3, 10,  1)=(    -8.20305098,    -8.20305098) ppm
dia1(k,t,iat1,ispin)=(  3,  1, 10,  1)=(    -0.00005932,    -0.00005932) ppm
dia1(k,t,iat1,ispin)=(  3,  2, 10,  1)=(    -8.09342377,    -8.09342377) ppm
dia1(k,t,iat1,ispin)=(  3,  3, 10,  1)=(    21.84427425,    21.84427425) ppm
(dia2,par1)(k,t,iat1,spin)=(  1,  1, 10,  1)=(     6.00213651,     6.00213651,     1.23546094,     1.23546094) ppm
(dia2,par1)(k,t,iat1,spin)=(  2,  1, 10,  1)=(    -0.00028717,    -0.00028717,    -0.00074443,    -0.00074443) ppm
(dia2,par1)(k,t,iat1,spin)=(  3,  1, 10,  1)=(     0.00034470,     0.00034470,     0.00304505,     0.00304505) ppm
(dia2,par1)(k,t,iat1,spin)=(  1,  2, 10,  1)=(     0.00140526,     0.00140526,     0.00001080,     0.00001080) ppm
(dia2,par1)(k,t,iat1,spin)=(  2,  2, 10,  1)=(     0.04387894,     0.04387894,     0.23835765,     0.23835765) ppm
(dia2,par1)(k,t,iat1,spin)=(  3,  2, 10,  1)=(     2.66434688,     2.66434688,    -0.07189763,    -0.07189763) ppm
(dia2,par1)(k,t,iat1,spin)=(  1,  3, 10,  1)=(    -0.00216206,    -0.00216206,     0.00269150,     0.00269150) ppm
(dia2,par1)(k,t,iat1,spin)=(  2,  3, 10,  1)=(     3.50280509,     3.50280509,    -0.44654528,    -0.44654528) ppm
(dia2,par1)(k,t,iat1,spin)=(  3,  3, 10,  1)=(     5.09807376,     5.09807376,    -3.43643553,    -3.43643553) ppm
 Grid integrated density:      30.000003891041
 Requested integration accuracy:   0.10E-06

 Wrote ZORA NMR data to ./C1C2C1C2_mol_0_conformer_0.zora_nmrcs

(nogshift,skip_gshiftAOev,done_Fji)=( 1,F,T)


         Total DFT energy =     -156.022697139898
      One electron energy =     -437.067766818153
           Coulomb energy =      189.278178187566
    Exchange-Corr. energy =      -23.962455512861
 Nuclear repulsion energy =      115.629849557046

             COSMO energy =        0.099497446504

       Scaling correction =        0.035135966424

 Numeric. integr. density =       30.000001524917

     Total iterative time =     54.7s


                                   COSMO solvation results
                                   -----------------------

                 gas phase energy =      -156.020167195019
                 sol phase energy =      -156.022697139898
 (electrostatic) solvation energy =         0.002529944879 (    1.59 kcal/mol)

 center of mass
 --------------
 x =   0.00000000 y =  -0.00000000 z =  -0.16245237

 moments of inertia (a.u.)
 ------------------
         195.730662587442           0.000000000000           0.000000000000
           0.000000000000         105.241386272609          -0.000000000000
           0.000000000000          -0.000000000000         218.542039056913

            Scalar ZORA NMR Shielding
            -------------------------


          -----------------------------------------
          Chemical Shielding Tensors (GIAO, in ppm)
          -----------------------------------------


 Read ZORA NMR data from ./C1C2C1C2_mol_0_conformer_0.zora_nmrcs

    0 giaofock schwarz done =      98.90%
    0 giaofock schwarz done =      91.57%
                                NWChem CPHF Module
                                ------------------



 solvent parameters
 solvname_short: cdcl3   
 solvname_long:  unknown                            
 dielec:       78.4000
 dielecinf:     1.7769

          ---------------
          -cosmo- solvent
          ---------------
 Cosmo: York-Karplus, doi: 10.1021/jp992097l
 dielectric constant -eps-     =  78.40
 screen = (eps-1)/(eps    )    =   0.98724
 surface charge correction     = lagrangian
 -lineq- algorithm             =   0
 -bem- low  level              =   2
 -bem- from -octahedral-
 gaussian surface charge width =   0.98000
 degree of switching           =   1.00000
 switching function tolerance  =   0.00010
 atomic radii = 
 --------------
    1  6.000  2.000
    2  6.000  2.000
    3  6.000  2.000
    4  6.000  2.000
    5  1.000  1.300
    6  1.000  1.300
    7  1.000  1.300
    8  1.000  1.300
    9  1.000  1.300
   10  1.000  1.300

 solvent accessible surface
 --------------------------

 ---------- ATOMIC COORDINATES (A.U.) ------------ VDWR(ANG.) --
     1    0.00000000   -2.16055902    0.43690460     2.000
     2   -1.42632923    0.00000000   -0.76993184     2.000
     3    1.42632923    0.00000000   -0.76993184     2.000
     4    0.00000000    2.16055902    0.43690460     2.000
     5    0.00000000   -3.94829499   -0.56065165     1.300
     6    0.00000000   -2.34258125    2.48241916     1.300
     7   -2.74612455    0.00000000   -2.31241151     1.300
     8    2.74612455    0.00000000   -2.31241151     1.300
     9    0.00000000    2.34258125    2.48241916     1.300
    10    0.00000000    3.94829499   -0.56065165     1.300
 number of segments per atom =         32
 number of   points per atom =         32
 atom (   nspa,  nppa )
 ----------------------
    1 (     14,     0 )       0
    2 (     16,     0 )       0
    3 (     16,     0 )       0
    4 (     14,     0 )       0
    5 (     16,     0 )       0
    6 (     16,     0 )       0
    7 (     12,     0 )       0
    8 (     12,     0 )       0
    9 (     16,     0 )       0
   10 (     16,     0 )       0
 number of -cosmo- surface points =      148
 molecular surface =     90.016 angstrom**2
 molecular volume  =     51.554 angstrom**3
 G(cav/disp)       =      1.310 kcal/mol
 ...... end of -cosmo- initialization ......


  scftype          =     RHF 
  nclosed          =       15
  nopen            =        0
  variables        =      825
  # of vectors     =        3
  tolerance        = 0.10D-03
  level shift      = 0.00D+00
  max iterations   =       50
  max subspace     =       30

 SCF residual:    1.4197299085200109E-004


Iterative solution of linear equations
  No. of variables      825
  No. of equations        3
  Maximum subspace       30
        Iterations       50
       Convergence  1.0D-04
        Start time    864.7


   iter   nsub   residual    time
   ----  ------  --------  ---------
     1      3    4.48D-01     866.9
     2      6    7.68D-03     868.9
     3      9    5.03D-04     871.0
     4     12    2.81D-05     873.2

 Wrote CPHF data to ./C1C2C1C2_mol_0_conformer_0.shieldcphf

 Calc. par tensor-> zora
      Atom:    1  H 
        Diamagnetic
     24.1427     -0.0034      0.0003
     -0.0034     39.1566      5.0647
      0.0003      5.0647     26.9550

        Paramagnetic
      2.4112      0.0028      0.0002
      0.0028      1.1935     -2.4629
      0.0002     -2.4629      0.4993

        Total Shielding Tensor
     26.5538     -0.0007      0.0005
     -0.0007     40.3500      2.6018
      0.0005      2.6018     27.4542

           isotropic =      31.4527
          anisotropy =      14.1037

          Principal Components and Axis System
                 1           2           3
               40.8552     26.9491     26.5538

      1        -0.0000      0.0016      1.0000
      2         0.9817     -0.1906      0.0003
      3         0.1906      0.9817     -0.0015



      Atom:    2  H 
        Diamagnetic
     22.9270     -0.0021      0.0020
     -0.0021     27.4922     -3.8178
      0.0020     -3.8178     39.4602

        Paramagnetic
      3.9519      0.0017     -0.0006
      0.0017      3.1401      0.2875
     -0.0006      0.2875     -0.8707

        Total Shielding Tensor
     26.8789     -0.0004      0.0014
     -0.0004     30.6323     -3.5303
      0.0014     -3.5303     38.5896

           isotropic =      32.0336
          anisotropy =      11.8446

          Principal Components and Axis System
                 1           2           3
               39.9300     29.2919     26.8789

      1         0.0001      0.0000      1.0000
      2        -0.3550      0.9349     -0.0000
      3         0.9349      0.3550     -0.0001



      Atom:    3  H 
        Diamagnetic
     30.8979     -0.0017      8.2029
     -0.0017     24.3407     -0.0015
      8.2029     -0.0015     32.3587

        Paramagnetic
     -0.1272     -0.0003     -1.5277
     -0.0003      4.0259     -0.0008
     -1.5277     -0.0008      2.8454

        Total Shielding Tensor
     30.7707     -0.0020      6.6752
     -0.0020     28.3666     -0.0023
      6.6752     -0.0023     35.2041

           isotropic =      31.4471
          anisotropy =      12.8608

          Principal Components and Axis System
                 1           2           3
               40.0210     28.3666     25.9538

      1         0.5852      0.0001      0.8109
      2        -0.0003      1.0000      0.0001
      3         0.8109      0.0003     -0.5852



      Atom:    4  H 
        Diamagnetic
     30.8753      0.0014     -8.2063
      0.0014     24.3143     -0.0014
     -8.2063     -0.0014     32.3380

        Paramagnetic
     -0.1238      0.0009      1.5275
      0.0009      4.0426     -0.0003
      1.5275     -0.0003      2.8364

        Total Shielding Tensor
     30.7515      0.0023     -6.6788
      0.0023     28.3569     -0.0017
     -6.6788     -0.0017     35.1744

           isotropic =      31.4276
          anisotropy =      12.8561

          Principal Components and Axis System
                 1           2           3
               39.9984     28.3569     25.9276

      1        -0.5855      0.0001      0.8107
      2        -0.0002      1.0000     -0.0004
      3         0.8107      0.0004      0.5855



      Atom:    5  H 
        Diamagnetic
     22.9104      0.0025      0.0023
      0.0025     27.4816      3.8195
      0.0023      3.8195     39.4450

        Paramagnetic
      3.9508     -0.0030     -0.0014
     -0.0030      3.1408     -0.2873
     -0.0014     -0.2873     -0.8790

        Total Shielding Tensor
     26.8612     -0.0005      0.0010
     -0.0005     30.6223      3.5321
      0.0010      3.5321     38.5660

           isotropic =      32.0165
          anisotropy =      11.8393

          Principal Components and Axis System
                 1           2           3
               39.9094     29.2790     26.8612

      1         0.0001     -0.0003      1.0000
      2         0.3555      0.9347      0.0003
      3         0.9347     -0.3555     -0.0002



      Atom:    6  H 
        Diamagnetic
     24.1289      0.0039      0.0000
      0.0039     39.1457     -5.0647
      0.0000     -5.0647     26.9423

        Paramagnetic
      2.4027     -0.0032     -0.0001
     -0.0032      1.1893      2.4656
     -0.0001      2.4656      0.4940

        Total Shielding Tensor
     26.5316      0.0007     -0.0001
      0.0007     40.3350     -2.5991
     -0.0001     -2.5991     27.4363

           isotropic =      31.4343
          anisotropy =      14.1071

          Principal Components and Axis System
                 1           2           3
               40.8390     26.9323     26.5316

      1         0.0000      0.0001      1.0000
      2         0.9817      0.1904     -0.0001
      3        -0.1904      0.9817     -0.0001




 Task  times  cpu:       79.5s     wall:       75.7s


                                NWChem Input Module
                                -------------------


 Summary of allocated global arrays
-----------------------------------
  array 0 => double precision sf 1(70,70),  handle: -987 
  array 1 => double precision sf 1(70,70),  handle: -986 
  array 2 => double precision sf 1(70,70),  handle: -985 
  array 3 => double precision sf 1(70,70),  handle: -984 
  array 4 => double precision sf 1(70,70),  handle: -983 
  array 5 => double precision sf 1(70,70),  handle: -982 
  array 6 => double precision sf 1(70,70),  handle: -981 
  array 7 => double precision sf 1(70,70),  handle: -980 
  array 8 => double precision sf 1(70,70),  handle: -979 
  array 9 => double precision sf 1(70,70),  handle: -978 
  array 10 => double precision sf 1(70,70),  handle: -977 
  array 11 => double precision sf 1(70,70),  handle: -976 
  array 12 => double precision sf 1(70,70),  handle: -975 
  array 13 => double precision sf 1(70,70),  handle: -974 
  array 14 => double precision sf 1(70,70),  handle: -973 
  array 15 => double precision sf 1(70,70),  handle: -972 
  array 16 => double precision sf 1(70,70),  handle: -971 
  array 17 => double precision sf 1(70,70),  handle: -970 
  array 18 => double precision sf 1(70,70),  handle: -969 
  array 19 => double precision sf 1(70,70),  handle: -968 
  array 20 => double precision sf 1(70,70),  handle: -967 
  array 21 => double precision sf 1(70,70),  handle: -966 
  array 22 => double precision sf 1(70,70),  handle: -965 
  array 23 => double precision sf 1(70,70),  handle: -964 
  array 24 => double precision sf 1(70,70),  handle: -963 
  array 25 => double precision sf 1(70,70),  handle: -962 
  array 26 => double precision sf 1(70,70),  handle: -961 
  array 27 => double precision sf 1(70,70),  handle: -960 
  array 28 => double precision sf 1(70,70),  handle: -959 
  array 29 => double precision sf 1(70,70),  handle: -958 
  array 30 => double precision sf 1(70,70),  handle: -957 
  array 31 => double precision sf 1(70,70),  handle: -956 
  array 32 => double precision sf 1(70,70),  handle: -955 
  array 33 => double precision sf 1(70,70),  handle: -954 
  array 34 => double precision sf 1(70,70),  handle: -953 
  array 35 => double precision sf 1(70,70),  handle: -952 
  array 36 => double precision sf 1(70,70),  handle: -951 
  array 37 => double precision sf 1(70,70),  handle: -950 
  array 38 => double precision sf 1(70,70),  handle: -949 
  array 39 => double precision sf 1(70,70),  handle: -948 
  array 40 => double precision sf 1(70,70),  handle: -947 
  array 41 => double precision sf 1(70,70),  handle: -946 
  array 42 => double precision sf 1(70,70),  handle: -945 
  array 43 => double precision sf 1(70,70),  handle: -944 
  array 44 => double precision sf 1(70,70),  handle: -943 
  array 45 => double precision sf 1(70,70),  handle: -942 
  array 46 => double precision sf 1(70,70),  handle: -941 
  array 47 => double precision sf 1(70,70),  handle: -940 
  array 48 => double precision sf 1(70,70),  handle: -939 
  array 49 => double precision sf 1(70,70),  handle: -938 
  array 50 => double precision sf 1(70,70),  handle: -937 



                         GA Statistics for process    0
                         ------------------------------

       create   destroy   get      put      acc     scatter   gather  read&inc
calls: 9188     8822     2.19e+05 5.41e+04 6.88e+04   60        0     6578     
number of processes/call 0.00e+00 0.00e+00 0.00e+00 0.00e+00 0.00e+00
bytes total:             3.56e+08 5.51e+07 2.82e+08 3.36e+02 0.00e+00 5.26e+04
bytes remote:            3.16e+08 4.52e+07 2.60e+08 -1.68e+02 0.00e+00 0.00e+00
Max memory consumed for GA by this process: 580576 bytes

MA_summarize_allocated_blocks: starting scan ...
MA_summarize_allocated_blocks: scan completed: 0 heap blocks, 0 stack blocks
MA usage statistics:

	allocation statistics:
					      heap	     stack
					      ----	     -----
	current number of blocks	         0	         0
	maximum number of blocks	        66	        59
	current total bytes		         0	         0
	maximum total bytes		   2004872	  27319128
	maximum total K-bytes		      2005	     27320
	maximum total M-bytes		         3	        28


                                     CITATION
                                     --------
                Please cite the following reference when publishing
                           results obtained with NWChem:

          E. Apr, E. J. Bylaska, W. A. de Jong, N. Govind, K. Kowalski,
       T. P. Straatsma, M. Valiev, H. J. J. van Dam, Y. Alexeev, J. Anchell,
       V. Anisimov, F. W. Aquino, R. Atta-Fynn, J. Autschbach, N. P. Bauman,
     J. C. Becca, D. E. Bernholdt, K. Bhaskaran-Nair, S. Bogatko, P. Borowski,
        J. Boschen, J. Brabec, A. Bruner, E. Caut, Y. Chen, G. N. Chuev,
      C. J. Cramer, J. Daily, M. J. O. Deegan, T. H. Dunning Jr., M. Dupuis,
   K. G. Dyall, G. I. Fann, S. A. Fischer, A. Fonari, H. Frchtl, L. Gagliardi,
      J. Garza, N. Gawande, S. Ghosh, K. Glaesemann, A. W. Gtz, J. Hammond,
       V. Helms, E. D. Hermes, K. Hirao, S. Hirata, M. Jacquelin, L. Jensen,
   B. G. Johnson, H. Jnsson, R. A. Kendall, M. Klemm, R. Kobayashi, V. Konkov,
      S. Krishnamoorthy, M. Krishnan, Z. Lin, R. D. Lins, R. J. Littlefield,
      A. J. Logsdail, K. Lopata, W. Ma, A. V. Marenich, J. Martin del Campo,
   D. Mejia-Rodriguez, J. E. Moore, J. M. Mullin, T. Nakajima, D. R. Nascimento,
    J. A. Nichols, P. J. Nichols, J. Nieplocha, A. Otero-de-la-Roza, B. Palmer,
    A. Panyala, T. Pirojsirikul, B. Peng, R. Peverati, J. Pittner, L. Pollack,
   R. M. Richard, P. Sadayappan, G. C. Schatz, W. A. Shelton, D. W. Silverstein,
   D. M. A. Smith, T. A. Soares, D. Song, M. Swart, H. L. Taylor, G. S. Thomas,
            V. Tipparaju, D. G. Truhlar, K. Tsemekhman, T. Van Voorhis,
     . Vzquez-Mayagoitia, P. Verma, O. Villa, A. Vishnu, K. D. Vogiatzis,
        D. Wang, J. H. Weare, M. J. Williamson, T. L. Windus, K. Woliski,
        A. T. Wong, Q. Wu, C. Yang, Q. Yu, M. Zacharias, Z. Zhang, Y. Zhao,
                                and R. J. Harrison
                        "NWChem: Past, present, and future
                         J. Chem. Phys. 152, 184102 (2020)
                               doi:10.1063/5.0004997

                                      AUTHORS
                                      -------
     E. Apra, E. J. Bylaska, N. Govind, K. Kowalski, M. Valiev, W. A. de Jong,
      T. P. Straatsma, H. J. J. van Dam, D. Wang, T. L. Windus, N. P. Bauman,
       A. Panyala, J. Hammond, J. Autschbach, K. Bhaskaran-Nair, J. Brabec,
    K. Lopata, S. A. Fischer, S. Krishnamoorthy, M. Jacquelin, W. Ma, M. Klemm,
       O. Villa, Y. Chen, V. Anisimov, F. Aquino, S. Hirata, M. T. Hackler,
           Eric Hermes, L. Jensen, J. E. Moore, J. C. Becca, V. Konjkov,
            D. Mejia-Rodriguez, T. Risthaus, M. Malagoli, A. Marenich,
   A. Otero-de-la-Roza, J. Mullin, P. Nichols, R. Peverati, J. Pittner, Y. Zhao,
        P.-D. Fan, A. Fonari, M. J. Williamson, R. J. Harrison, J. R. Rehr,
      M. Dupuis, D. Silverstein, D. M. A. Smith, J. Nieplocha, V. Tipparaju,
      M. Krishnan, B. E. Van Kuiken, A. Vazquez-Mayagoitia, M. Swart, Q. Wu,
   T. Van Voorhis, A. A. Auer, M. Nooijen, L. D. Crosby, E. Brown, G. Cisneros,
     G. I. Fann, H. Fruchtl, J. Garza, K. Hirao, R. A. Kendall, J. A. Nichols,
       K. Tsemekhman, K. Wolinski, J. Anchell, D. E. Bernholdt, P. Borowski,
       T. Clark, D. Clerc, H. Dachsel, M. J. O. Deegan, K. Dyall, D. Elwood,
      E. Glendening, M. Gutowski, A. C. Hess, J. Jaffe, B. G. Johnson, J. Ju,
        R. Kobayashi, R. Kutteh, Z. Lin, R. Littlefield, X. Long, B. Meng,
      T. Nakajima, S. Niu, L. Pollack, M. Rosing, K. Glaesemann, G. Sandrone,
      M. Stave, H. Taylor, G. Thomas, J. H. van Lenthe, A. T. Wong, Z. Zhang.

 Total times  cpu:      869.2s     wall:      873.5s
