 argument  1 = C1C2C1C2_mol_5_conformer_0.nw



============================== echo of input deck ==============================
start

title "Molecule conformer 0"

memory total 4000 mb

echo
geometry units angstroms
   C      1.2060    -0.2274    -0.3840
   C      0.0507    -0.5522     0.5358
   C     -0.0354     0.6340    -0.4378
   C     -1.2760    -0.1458    -0.0650
   H      2.0802     0.2439     0.1137
   H      1.3062    -0.9244    -1.2418
   H      0.1960    -0.1526     1.5640
   H      0.0705     1.5755     0.1455
   H     -1.6345    -0.8279    -0.8637
   H     -1.9638     0.3770     0.6333
end


basis spherical
* library 6-311G
end

driver
  maxiter 500
  xyz final
end

relativistic
  zora on
  zora:cutoff_NMR 1d-8
  zora:cutoff 1d-30
end

dft
  direct
  grid fine
  xc B3LYP
  mult 1
  maxiter 1500
  noprint "final vectors analysis" multipole
end

task dft optimize

task dft freq

property
  shielding 6 5 6 7 8 9 10
end

cosmo
   solvent cdcl3
end

task dft property
================================================================================


                                         
                                         


             Northwest Computational Chemistry Package (NWChem) 7.0.2
             --------------------------------------------------------


                    Environmental Molecular Sciences Laboratory
                       Pacific Northwest National Laboratory
                                Richland, WA 99352

                              Copyright (c) 1994-2020
                       Pacific Northwest National Laboratory
                            Battelle Memorial Institute

             NWChem is an open-source computational chemistry package
                        distributed under the terms of the
                      Educational Community License (ECL) 2.0
             A copy of the license is included with this distribution
                              in the LICENSE.TXT file

                                  ACKNOWLEDGMENT
                                  --------------

            This software and its documentation were developed at the
            EMSL at Pacific Northwest National Laboratory, a multiprogram
            national laboratory, operated for the U.S. Department of Energy
            by Battelle under Contract Number DE-AC05-76RL01830. Support
            for this work was provided by the Department of Energy Office
            of Biological and Environmental Research, Office of Basic
            Energy Sciences, and the Office of Advanced Scientific Computing.


           Job information
           ---------------

    hostname        = ponder
    program         = nwchem
    date            = Sat Aug  3 14:43:18 2024

    compiled        = Sat_Apr_09_17:12:10_2022
    source          = /build/nwchem-f1f4gx/nwchem-7.0.2/build-openmpi
    nwchem branch   = 7.0.2
    nwchem revision = N/A
    ga revision     = 5.8.1
    use scalapack   = T
    input           = C1C2C1C2_mol_5_conformer_0.nw
    prefix          = C1C2C1C2_mol_5_conformer_0.
    data base       = ./C1C2C1C2_mol_5_conformer_0.db
    status          = startup
    nproc           =       40
    time left       =     -1s



           Memory information
           ------------------

    heap     =  131071994 doubles =   1000.0 Mbytes
    stack    =  131071999 doubles =   1000.0 Mbytes
    global   =  262144000 doubles =   2000.0 Mbytes (distinct from heap & stack)
    total    =  524287993 doubles =   4000.0 Mbytes
    verify   = yes
    hardfail = no 


           Directory information
           ---------------------

  0 permanent = .
  0 scratch   = .




                                NWChem Input Module
                                -------------------


                               Molecule conformer 0
                               --------------------

 Scaling coordinates for geometry "geometry" by  1.889725989
 (inverse scale =  0.529177249)

 C2V symmetry detected

          ------
          auto-z
          ------
  no constraints, skipping    0.0000000000000000     
  no constraints, skipping    0.0000000000000000     


                             Geometry "geometry" -> ""
                             -------------------------

 Output coordinates in angstroms (scale by  1.889725989 to convert to a.u.)

  No.       Tag          Charge          X              Y              Z
 ---- ---------------- ---------- -------------- -------------- --------------
    1 C                    6.0000     0.00000000    -1.25187295    -0.21743940
    2 C                    6.0000    -0.76850189     0.00000000     0.14085869
    3 C                    6.0000     0.76850189     0.00000000     0.14085869
    4 C                    6.0000     0.00000000     1.25187295    -0.21743940
    5 H                    1.0000     0.00000000    -2.03970805     0.56572647
    6 H                    1.0000     0.00000000    -1.48323871    -1.30286876
    7 H                    1.0000    -1.11962294     0.00000000     1.19662652
    8 H                    1.0000     1.11962294     0.00000000     1.19662652
    9 H                    1.0000     0.00000000     1.48323871    -1.30286876
   10 H                    1.0000     0.00000000     2.03970805     0.56572647

      Atomic Mass 
      ----------- 

      C                 12.000000
      H                  1.007825


 Effective nuclear repulsion energy (a.u.)     114.6826721631

            Nuclear Dipole moment (a.u.) 
            ----------------------------
        X                 Y               Z
 ---------------- ---------------- ----------------
     0.0000000000     0.0000000000     0.0000000000

      Symmetry information
      --------------------

 Group name             C2v       
 Group number             16
 Group order               4
 No. of unique centers     5

      Symmetry unique atoms

     1    2    5    6    7



                                Z-matrix (autoz)
                                -------- 

 Units are Angstrom for bonds and degrees for angles

      Type          Name      I     J     K     L     M      Value
      ----------- --------  ----- ----- ----- ----- ----- ----------
    1 Stretch                  1     2                       1.51200
    2 Stretch                  1     3                       1.51200
    3 Stretch                  1     5                       1.11087
    4 Stretch                  1     6                       1.10981
    5 Stretch                  2     3                       1.53700
    6 Stretch                  2     4                       1.51200
    7 Stretch                  2     7                       1.11262
    8 Stretch                  3     4                       1.51200
    9 Stretch                  3     8                       1.11262
   10 Stretch                  4     9                       1.10981
   11 Stretch                  4    10                       1.11087
   12 Bend                     1     2     3                59.45155
   13 Bend                     1     2     4               111.77861
   14 Bend                     1     2     7               112.65976
   15 Bend                     1     3     2                59.45155
   16 Bend                     1     3     4               111.77861
   17 Bend                     1     3     8               112.65976
   18 Bend                     2     1     3                61.09691
   19 Bend                     2     1     5               114.84260
   20 Bend                     2     1     6               113.85155
   21 Bend                     2     3     4                59.45155
   22 Bend                     2     3     8               108.39579
   23 Bend                     2     4     3                61.09691
   24 Bend                     2     4     9               113.85155
   25 Bend                     2     4    10               114.84260
   26 Bend                     3     1     5               114.84260
   27 Bend                     3     1     6               113.85155
   28 Bend                     3     2     4                59.45155
   29 Bend                     3     2     7               108.39579
   30 Bend                     3     4     9               113.85155
   31 Bend                     3     4    10               114.84260
   32 Bend                     4     2     7               112.65976
   33 Bend                     4     3     8               112.65976
   34 Bend                     5     1     6               122.79685
   35 Bend                     9     4    10               122.79685
   36 Torsion                  1     2     3     4         148.05674
   37 Torsion                  1     2     3     8        -105.97163
   38 Torsion                  1     2     4     3         -29.38425
   39 Torsion                  1     2     4     9          75.74141
   40 Torsion                  1     2     4    10        -135.24119
   41 Torsion                  1     3     2     4        -148.05674
   42 Torsion                  1     3     2     7         105.97163
   43 Torsion                  1     3     4     2          29.38425
   44 Torsion                  1     3     4     9         -75.74141
   45 Torsion                  1     3     4    10         135.24119
   46 Torsion                  2     1     3     4         -29.38425
   47 Torsion                  2     1     3     8          98.66755
   48 Torsion                  2     3     1     5        -105.85694
   49 Torsion                  2     3     1     6         105.12567
   50 Torsion                  2     3     4     9        -105.12567
   51 Torsion                  2     3     4    10         105.85694
   52 Torsion                  2     4     3     8         -98.66755
   53 Torsion                  3     1     2     4          29.38425
   54 Torsion                  3     1     2     7         -98.66755
   55 Torsion                  3     2     1     5         105.85694
   56 Torsion                  3     2     1     6        -105.12567
   57 Torsion                  3     2     4     9         105.12567
   58 Torsion                  3     2     4    10        -105.85694
   59 Torsion                  3     4     2     7          98.66755
   60 Torsion                  4     2     1     5         135.24119
   61 Torsion                  4     2     1     6         -75.74141
   62 Torsion                  4     2     3     8         105.97163
   63 Torsion                  4     3     1     5        -135.24119
   64 Torsion                  4     3     1     6          75.74141
   65 Torsion                  4     3     2     7        -105.97163
   66 Torsion                  5     1     2     7           7.18939
   67 Torsion                  5     1     3     8          -7.18939
   68 Torsion                  6     1     2     7         156.20679
   69 Torsion                  6     1     3     8        -156.20679
   70 Torsion                  7     2     3     8           0.00000
   71 Torsion                  7     2     4     9        -156.20679
   72 Torsion                  7     2     4    10          -7.18939
   73 Torsion                  8     3     4     9         156.20679
   74 Torsion                  8     3     4    10           7.18939


            XYZ format geometry
            -------------------
    10
 geometry
 C                     0.00000000    -1.25187295    -0.21743940
 C                    -0.76850189     0.00000000     0.14085869
 C                     0.76850189     0.00000000     0.14085869
 C                     0.00000000     1.25187295    -0.21743940
 H                     0.00000000    -2.03970805     0.56572647
 H                     0.00000000    -1.48323871    -1.30286876
 H                    -1.11962294     0.00000000     1.19662652
 H                     1.11962294     0.00000000     1.19662652
 H                     0.00000000     1.48323871    -1.30286876
 H                     0.00000000     2.03970805     0.56572647

 ==============================================================================
                                internuclear distances
 ------------------------------------------------------------------------------
       center one      |      center two      | atomic units |  angstroms
 ------------------------------------------------------------------------------
    2 C                |   1 C                |     2.85727  |     1.51200
    3 C                |   1 C                |     2.85727  |     1.51200
    3 C                |   2 C                |     2.90452  |     1.53700
    4 C                |   2 C                |     2.85727  |     1.51200
    4 C                |   3 C                |     2.85727  |     1.51200
    5 H                |   1 C                |     2.09924  |     1.11087
    6 H                |   1 C                |     2.09724  |     1.10981
    7 H                |   2 C                |     2.10255  |     1.11262
    8 H                |   3 C                |     2.10255  |     1.11262
    9 H                |   4 C                |     2.09724  |     1.10981
   10 H                |   4 C                |     2.09924  |     1.11087
 ------------------------------------------------------------------------------
                         number of included internuclear distances:         11
 ==============================================================================



 ==============================================================================
                                 internuclear angles
 ------------------------------------------------------------------------------
        center 1       |       center 2       |       center 3       |  degrees
 ------------------------------------------------------------------------------
    2 C                |   1 C                |   3 C                |    61.10
    2 C                |   1 C                |   5 H                |   114.84
    2 C                |   1 C                |   6 H                |   113.85
    3 C                |   1 C                |   5 H                |   114.84
    3 C                |   1 C                |   6 H                |   113.85
    5 H                |   1 C                |   6 H                |   122.80
    2 C                |   1 C                |   3 C                |    61.10
    1 C                |   2 C                |   4 C                |   111.78
    1 C                |   2 C                |   7 H                |   112.66
    2 C                |   4 C                |   3 C                |    61.10
    3 C                |   2 C                |   7 H                |   108.40
    4 C                |   2 C                |   7 H                |   112.66
    3 C                |   1 C                |   2 C                |    61.10
    1 C                |   3 C                |   4 C                |   111.78
    1 C                |   3 C                |   8 H                |   112.66
    3 C                |   4 C                |   2 C                |    61.10
    2 C                |   3 C                |   8 H                |   108.40
    4 C                |   3 C                |   8 H                |   112.66
    2 C                |   4 C                |   3 C                |    61.10
    2 C                |   4 C                |   9 H                |   113.85
    2 C                |   4 C                |  10 H                |   114.84
    3 C                |   4 C                |   9 H                |   113.85
    3 C                |   4 C                |  10 H                |   114.84
    9 H                |   4 C                |  10 H                |   122.80
 ------------------------------------------------------------------------------
                            number of included internuclear angles:         24
 ==============================================================================





 Summary of "ao basis" -> "" (spherical)
 ------------------------------------------------------------------------------
       Tag                 Description            Shells   Functions and Types
 ---------------- ------------------------------  ------  ---------------------
 *                           6-311G                   on all atoms 




                           NWChem Geometry Optimization
                           ----------------------------




                               Molecule conformer 0


  no constraints, skipping    0.0000000000000000     
 maximum gradient threshold         (gmax) =   0.000450
 rms gradient threshold             (grms) =   0.000300
 maximum cartesian step threshold   (xmax) =   0.001800
 rms cartesian step threshold       (xrms) =   0.001200
 fixed trust radius                (trust) =   0.300000
 maximum step size to saddle      (sadstp) =   0.100000
 energy precision                  (eprec) =   5.0D-06
 maximum number of steps          (nptopt) =  500
 initial hessian option           (inhess) =    0
 line search option               (linopt) =    1
 hessian update option            (modupd) =    1
 saddle point option              (modsad) =    0
 initial eigen-mode to follow     (moddir) =    0
 initial variable to follow       (vardir) =    0
 follow first negative mode     (firstneg) =    T
 apply conjugacy                    (opcg) =    F
 source of zmatrix                         =   autoz   


          -------------------
          Energy Minimization
          -------------------


 Names of Z-matrix variables 
    1              2              3              4              5         
    6              7              8              9             10         
   11             12             13             14             15         
   16             17             18             19             20         
   21             22             23             24             25         
   26             27             28             29             30         
   31             32             33             34             35         
   36             37             38             39             40         
   41             42             43             44             45         
   46             47             48             49             50         
   51             52             53             54             55         
   56             57             58             59             60         
   61             62             63             64             65         
   66             67             68             69             70         
   71             72             73             74         

 Variables with the same non-blank name are constrained to be equal


 Using diagonal initial Hessian 
 Scaling for Hessian diagonals: bonds = 1.00  angles = 0.25  torsions = 0.10

          --------
          Step   0
          --------


                         Geometry "geometry" -> "geometry"
                         ---------------------------------

 Output coordinates in angstroms (scale by  1.889725989 to convert to a.u.)

  No.       Tag          Charge          X              Y              Z
 ---- ---------------- ---------- -------------- -------------- --------------
    1 C                    6.0000     0.00000000    -1.25187295    -0.21743940
    2 C                    6.0000    -0.76850189     0.00000000     0.14085869
    3 C                    6.0000     0.76850189     0.00000000     0.14085869
    4 C                    6.0000     0.00000000     1.25187295    -0.21743940
    5 H                    1.0000     0.00000000    -2.03970805     0.56572647
    6 H                    1.0000     0.00000000    -1.48323871    -1.30286876
    7 H                    1.0000    -1.11962294     0.00000000     1.19662652
    8 H                    1.0000     1.11962294     0.00000000     1.19662652
    9 H                    1.0000     0.00000000     1.48323871    -1.30286876
   10 H                    1.0000     0.00000000     2.03970805     0.56572647

      Atomic Mass 
      ----------- 

      C                 12.000000
      H                  1.007825


 Effective nuclear repulsion energy (a.u.)     114.6826721631

            Nuclear Dipole moment (a.u.) 
            ----------------------------
        X                 Y               Z
 ---------------- ---------------- ----------------
     0.0000000000     0.0000000000     0.0000000000

      Symmetry information
      --------------------

 Group name             C2v       
 Group number             16
 Group order               4
 No. of unique centers     5

      Symmetry unique atoms

     1    2    5    6    7


                                 NWChem DFT Module
                                 -----------------


                               Molecule conformer 0


                      Basis "ao basis" -> "ao basis" (spherical)
                      -----
  C (Carbon)
  ----------
            Exponent  Coefficients 
       -------------- ---------------------------------------------------------
  1 S  4.56324000E+03  0.001967
  1 S  6.82024000E+02  0.015231
  1 S  1.54973000E+02  0.076127
  1 S  4.44553000E+01  0.260801
  1 S  1.30290000E+01  0.616462
  1 S  1.82773000E+00  0.221006

  2 S  2.09642000E+01  0.114660
  2 S  4.80331000E+00  0.919999
  2 S  1.45933000E+00 -0.003031

  3 P  2.09642000E+01  0.040249
  3 P  4.80331000E+00  0.237594
  3 P  1.45933000E+00  0.815854

  4 S  4.83456000E-01  1.000000

  5 P  4.83456000E-01  1.000000

  6 S  1.45585000E-01  1.000000

  7 P  1.45585000E-01  1.000000

  H (Hydrogen)
  ------------
            Exponent  Coefficients 
       -------------- ---------------------------------------------------------
  1 S  3.38650000E+01  0.025494
  1 S  5.09479000E+00  0.190373
  1 S  1.15879000E+00  0.852161

  2 S  3.25840000E-01  1.000000

  3 S  1.02741000E-01  1.000000



 Summary of "ao basis" -> "ao basis" (spherical)
 ------------------------------------------------------------------------------
       Tag                 Description            Shells   Functions and Types
 ---------------- ------------------------------  ------  ---------------------
 C                           6-311G                  7       13   4s3p
 H                           6-311G                  3        3   3s




 Summary of "ao basis" -> "ao basis" (spherical)
 ------------------------------------------------------------------------------
       Tag                 Description            Shells   Functions and Types
 ---------------- ------------------------------  ------  ---------------------
 C                           6-311G                  7       13   4s3p
 H                           6-311G                  3        3   3s


      Symmetry analysis of basis
      --------------------------

        a1         29
        a2          6
        b1         16
        b2         19

  Caching 1-el integrals 

            General Information
            -------------------
          SCF calculation type: DFT
          Wavefunction type:  closed shell.
          No. of atoms     :    10
          No. of electrons :    30
           Alpha electrons :    15
            Beta electrons :    15
          Charge           :     0
          Spin multiplicity:     1
          Use of symmetry is: on ; symmetry adaption is: on 
          Maximum number of iterations: ***
          This is a Direct SCF calculation.
          AO basis - number of functions:    70
                     number of shells:    46
          Convergence on energy requested:  1.00D-06
          Convergence on density requested:  1.00D-05
          Convergence on gradient requested:  5.00D-04

              XC Information
              --------------
                         B3LYP Method XC Potential
                     Hartree-Fock (Exact) Exchange  0.200          
                        Slater Exchange Functional  0.800 local    
                    Becke 1988 Exchange Functional  0.720 non-local
              Lee-Yang-Parr Correlation Functional  0.810          
                  VWN I RPA Correlation Functional  0.190 local    

             Grid Information
             ----------------
          Grid used for XC integration:  fine      
          Radial quadrature: Mura-Knowles        
          Angular quadrature: Lebedev. 
          Tag              B.-S. Rad. Rad. Pts. Rad. Cut. Ang. Pts.
          ---              ---------- --------- --------- ---------
          C                   0.70       70          10.0       590
          H                   0.35       60          11.0       590
          Grid pruning is: on 
          Number of quadrature shells:   320
          Spatial weights used:  Erf1

          Convergence Information
          -----------------------
          Convergence aids based upon iterative change in 
          total energy or number of iterations. 
          Levelshifting, if invoked, occurs when the 
          HOMO/LUMO gap drops below (HL_TOL):  1.00D-02
          DIIS, if invoked, will attempt to extrapolate 
          using up to (NFOCK): 10 stored Fock matrices.

                    Damping( 0%)  Levelshifting(0.5)       DIIS
                  --------------- ------------------- ---------------
          dE  on:    start            ASAP                start   
          dE off:    2 iters        *** iters           *** iters 


      Screening Tolerance Information
      -------------------------------
          Density screening/tol_rho:  1.00D-10
          AO Gaussian exp screening on grid/accAOfunc:  14
          CD Gaussian exp screening on grid/accCDfunc:  20
          XC Gaussian exp screening on grid/accXCfunc:  20
          Schwarz screening/accCoul:  1.00D-08

          Performing ZORA calculations
          ----------------------------


      Superposition of Atomic Density Guess
      -------------------------------------

 Sum of atomic energies:        -153.67306699

 Read atomic ZORA corrections from ./C1C2C1C2_mol_5_conformer_0.zora_sf

 dft_zora_read: failed to open./C1C2C1C2_mol_5_conformer_0.zora_sf
 Forcing recalculation of ZORA corrections
       Generating atomic ZORA corrections
       ----------------------------------

 In dft_scf:: zora:Knucl= F

 Grid_pts file          = ./C1C2C1C2_mol_5_conformer_0.gridpts.00
 Record size in doubles =  12289        No. of grid_pts per rec  =   3070
 Max. records in memory =      3        Max. recs in file   =     13567

 Grid integrated density:      29.999985323158
 Requested integration accuracy:   0.10E-06

 Wrote atomic ZORA corrections to ./C1C2C1C2_mol_5_conformer_0.zora_sf


      Superposition of Atomic Density Guess
      -------------------------------------

 Sum of atomic energies:        -153.67306699

      Non-variational initial energy
      ------------------------------

 Total energy =    -156.684309
 1-e energy   =    -431.541052
 2-e energy   =     160.174072
 HOMO         =      -0.249838
 LUMO         =       0.040418


      Symmetry analysis of molecular orbitals - initial
      -------------------------------------------------

  Numbering of irreducible representations: 

     1 a1          2 a2          3 b1          4 b2      

  Orbital symmetries:

     1 a1          2 b2          3 a1          4 b1          5 a1      
     6 b2          7 b1          8 a1          9 a1         10 b2      
    11 a1         12 b2         13 a2         14 b1         15 a1      
    16 b1         17 a1         18 a1         19 b2         20 b1      
    21 a1         22 b2         23 a2         24 b1         25 a1      

   Time after variat. SCF:      5.5
   Time prior to 1st pass:      5.5
 Grid integrated density:      29.999991397311
 Requested integration accuracy:   0.10E-06

           Memory utilization after 1st SCF pass: 
           Heap Space remaining (MW):      131.03           131029058
          Stack Space remaining (MW):      131.06           131061516

   convergence    iter        energy       DeltaE   RMS-Dens  Diis-err    time
 ---------------- ----- ----------------- --------- --------- ---------  ------
 d= 0,ls=0.0,diis     1   -155.9267259465 -2.71D+02  1.44D-02  5.78D-01     7.3
 Grid integrated density:      29.999992467748
 Requested integration accuracy:   0.10E-06
 d= 0,ls=0.0,diis     2   -155.9699311771 -4.32D-02  8.15D-03  6.91D-02     8.9
 Grid integrated density:      29.999992554775
 Requested integration accuracy:   0.10E-06
 d= 0,ls=0.0,diis     3   -155.9733953958 -3.46D-03  2.21D-03  4.34D-02    10.6
 Grid integrated density:      29.999992587296
 Requested integration accuracy:   0.10E-06
 d= 0,ls=0.0,diis     4   -155.9788588176 -5.46D-03  3.99D-04  4.06D-04    12.5
 Grid integrated density:      29.999992610620
 Requested integration accuracy:   0.10E-06
 d= 0,ls=0.0,diis     5   -155.9788998862 -4.11D-05  1.61D-04  7.44D-05    14.2
 Grid integrated density:      29.999992605554
 Requested integration accuracy:   0.10E-06
  Resetting Diis
 d= 0,ls=0.0,diis     6   -155.9789098456 -9.96D-06  4.71D-05  1.37D-06    16.2
 Grid integrated density:      29.999992604932
 Requested integration accuracy:   0.10E-06
 d= 0,ls=0.0,diis     7   -155.9789100660 -2.20D-07  4.37D-06  1.49D-08    18.2
(nogshift,skip_gshiftAOev,done_Fji)=( 1,F,F)


         Total DFT energy =     -155.978910066042
      One electron energy =     -434.797086238181
           Coulomb energy =      188.028763014388
    Exchange-Corr. energy =      -23.893259005333
 Nuclear repulsion energy =      114.682672163084

       Scaling correction =        0.035100379441

 Numeric. integr. density =       29.999992604932

     Total iterative time =     12.8s



                  Occupations of the irreducible representations
                  ----------------------------------------------

                     irrep           alpha         beta
                     --------     --------     --------
                     a1                7.0          7.0
                     a2                1.0          1.0
                     b1                3.0          3.0
                     b2                4.0          4.0


 center of mass
 --------------
 x =   0.00000000 y =   0.00000000 z =  -0.03187987

 moments of inertia (a.u.)
 ------------------
         210.625579599591           0.000000000000           0.000000000000
           0.000000000000          90.167149311014          -0.000000000000
           0.000000000000          -0.000000000000         239.739212161565

            General Information
            -------------------
          SCF calculation type: DFT
          Wavefunction type:  closed shell.
          No. of atoms     :    10
          No. of electrons :    30
           Alpha electrons :    15
            Beta electrons :    15
          Charge           :     0
          Spin multiplicity:     1
          Use of symmetry is: on ; symmetry adaption is: on 
          Maximum number of iterations: ***
          This is a Direct SCF calculation.
          AO basis - number of functions:    70
                     number of shells:    46
          Convergence on energy requested:  1.00D-06
          Convergence on density requested:  1.00D-05
          Convergence on gradient requested:  5.00D-04

              XC Information
              --------------
                         B3LYP Method XC Potential
                     Hartree-Fock (Exact) Exchange  0.200          
                        Slater Exchange Functional  0.800 local    
                    Becke 1988 Exchange Functional  0.720 non-local
              Lee-Yang-Parr Correlation Functional  0.810          
                  VWN I RPA Correlation Functional  0.190 local    

             Grid Information
             ----------------
          Grid used for XC integration:  fine      
          Radial quadrature: Mura-Knowles        
          Angular quadrature: Lebedev. 
          Tag              B.-S. Rad. Rad. Pts. Rad. Cut. Ang. Pts.
          ---              ---------- --------- --------- ---------
          C                   0.70       70          10.0       590
          H                   0.35       60          11.0       590
          Grid pruning is: on 
          Number of quadrature shells:   320
          Spatial weights used:  Erf1

          Convergence Information
          -----------------------
          Convergence aids based upon iterative change in 
          total energy or number of iterations. 
          Levelshifting, if invoked, occurs when the 
          HOMO/LUMO gap drops below (HL_TOL):  1.00D-02
          DIIS, if invoked, will attempt to extrapolate 
          using up to (NFOCK): 10 stored Fock matrices.

                    Damping( 0%)  Levelshifting(0.5)       DIIS
                  --------------- ------------------- ---------------
          dE  on:    start            ASAP                start   
          dE off:    2 iters        *** iters           *** iters 


      Screening Tolerance Information
      -------------------------------
          Density screening/tol_rho:  1.00D-10
          AO Gaussian exp screening on grid/accAOfunc:  14
          CD Gaussian exp screening on grid/accCDfunc:  20
          XC Gaussian exp screening on grid/accXCfunc:  20
          Schwarz screening/accCoul:  1.00D-08



                            NWChem DFT Gradient Module
                            --------------------------


                               Molecule conformer 0



  charge          =   0.00
  wavefunction    = closed shell

  Using symmetry


                         DFT ENERGY GRADIENTS

    atom               coordinates                        gradient
                 x          y          z           x          y          z
   1 C       0.000000  -2.365697  -0.410901    0.000000  -0.026675   0.044402
   2 C      -1.452258   0.000000   0.266184    0.046469   0.000000  -0.066142
   3 C       1.452258   0.000000   0.266184   -0.046469  -0.000000  -0.066142
   4 C       0.000000   2.365697  -0.410901    0.000000   0.026675   0.044402
   5 H       0.000000  -3.854489   1.069068    0.000000  -0.009424   0.020865
   6 H       0.000000  -2.802915  -2.462065    0.000000   0.012187  -0.019843
   7 H      -2.115781   0.000000   2.261296    0.008587   0.000000   0.020717
   8 H       2.115781   0.000000   2.261296   -0.008587   0.000000   0.020717
   9 H       0.000000   2.802915  -2.462065    0.000000  -0.012187  -0.019843
  10 H       0.000000   3.854489   1.069068    0.000000   0.009424   0.020865

                 ----------------------------------------
                 |  Time  |  1-e(secs)   |  2-e(secs)   |
                 ----------------------------------------
                 |  CPU   |       0.00   |       0.03   |
                 ----------------------------------------
                 |  WALL  |       0.00   |       0.03   |
                 ----------------------------------------
  no constraints, skipping    0.0000000000000000     

@ Step       Energy      Delta E   Gmax     Grms     Xrms     Xmax   Walltime
@ ---- ---------------- -------- -------- -------- -------- -------- --------
@    0    -155.97891007  0.0D+00  0.02139  0.00708  0.00000  0.00000     19.9
                                                                    



                                Z-matrix (autoz)
                                -------- 

 Units are Angstrom for bonds and degrees for angles

      Type          Name      I     J     K     L     M      Value     Gradient
      ----------- --------  ----- ----- ----- ----- ----- ---------- ----------
    1 Stretch                  1     2                       1.51200   -0.00495
    2 Stretch                  1     3                       1.51200   -0.00495
    3 Stretch                  1     5                       1.11087    0.02139
    4 Stretch                  1     6                       1.10981    0.01687
    5 Stretch                  2     3                       1.53700   -0.01779
    6 Stretch                  2     4                       1.51200   -0.00495
    7 Stretch                  2     7                       1.11262    0.01695
    8 Stretch                  3     4                       1.51200   -0.00495
    9 Stretch                  3     8                       1.11262    0.01695
   10 Stretch                  4     9                       1.10981    0.01687
   11 Stretch                  4    10                       1.11087    0.02139
   12 Bend                     1     2     3                59.45155    0.00490
   13 Bend                     1     2     4               111.77861    0.01173
   14 Bend                     1     2     7               112.65976   -0.00584
   15 Bend                     1     3     2                59.45155    0.00490
   16 Bend                     1     3     4               111.77861    0.01173
   17 Bend                     1     3     8               112.65976   -0.00584
   18 Bend                     2     1     3                61.09691   -0.00979
   19 Bend                     2     1     5               114.84260    0.00185
   20 Bend                     2     1     6               113.85155   -0.00154
   21 Bend                     2     3     4                59.45155    0.00490
   22 Bend                     2     3     8               108.39579   -0.00426
   23 Bend                     2     4     3                61.09691   -0.00979
   24 Bend                     2     4     9               113.85155   -0.00154
   25 Bend                     2     4    10               114.84260    0.00185
   26 Bend                     3     1     5               114.84260    0.00185
   27 Bend                     3     1     6               113.85155   -0.00154
   28 Bend                     3     2     4                59.45155    0.00490
   29 Bend                     3     2     7               108.39579   -0.00426
   30 Bend                     3     4     9               113.85155   -0.00154
   31 Bend                     3     4    10               114.84260    0.00185
   32 Bend                     4     2     7               112.65976   -0.00584
   33 Bend                     4     3     8               112.65976   -0.00584
   34 Bend                     5     1     6               122.79685    0.00277
   35 Bend                     9     4    10               122.79685    0.00277
   36 Torsion                  1     2     3     4         148.05674    0.00757
   37 Torsion                  1     2     3     8        -105.97163    0.00378
   38 Torsion                  1     2     4     3         -29.38425    0.00257
   39 Torsion                  1     2     4     9          75.74141   -0.00158
   40 Torsion                  1     2     4    10        -135.24119    0.00437
   41 Torsion                  1     3     2     4        -148.05674   -0.00757
   42 Torsion                  1     3     2     7         105.97163   -0.00378
   43 Torsion                  1     3     4     2          29.38425   -0.00257
   44 Torsion                  1     3     4     9         -75.74141    0.00158
   45 Torsion                  1     3     4    10         135.24119   -0.00437
   46 Torsion                  2     1     3     4         -29.38425    0.00257
   47 Torsion                  2     1     3     8          98.66755   -0.00040
   48 Torsion                  2     3     1     5        -105.85694    0.00180
   49 Torsion                  2     3     1     6         105.12567   -0.00415
   50 Torsion                  2     3     4     9        -105.12567    0.00415
   51 Torsion                  2     3     4    10         105.85694   -0.00180
   52 Torsion                  2     4     3     8         -98.66755    0.00040
   53 Torsion                  3     1     2     4          29.38425   -0.00257
   54 Torsion                  3     1     2     7         -98.66755    0.00040
   55 Torsion                  3     2     1     5         105.85694   -0.00180
   56 Torsion                  3     2     1     6        -105.12567    0.00415
   57 Torsion                  3     2     4     9         105.12567   -0.00415
   58 Torsion                  3     2     4    10        -105.85694    0.00180
   59 Torsion                  3     4     2     7          98.66755   -0.00040
   60 Torsion                  4     2     1     5         135.24119   -0.00437
   61 Torsion                  4     2     1     6         -75.74141    0.00158
   62 Torsion                  4     2     3     8         105.97163   -0.00378
   63 Torsion                  4     3     1     5        -135.24119    0.00437
   64 Torsion                  4     3     1     6          75.74141   -0.00158
   65 Torsion                  4     3     2     7        -105.97163    0.00378
   66 Torsion                  5     1     2     7           7.18939   -0.00140
   67 Torsion                  5     1     3     8          -7.18939    0.00140
   68 Torsion                  6     1     2     7         156.20679    0.00455
   69 Torsion                  6     1     3     8        -156.20679   -0.00455
   70 Torsion                  7     2     3     8           0.00000   -0.00000
   71 Torsion                  7     2     4     9        -156.20679   -0.00455
   72 Torsion                  7     2     4    10          -7.18939    0.00140
   73 Torsion                  8     3     4     9         156.20679    0.00455
   74 Torsion                  8     3     4    10           7.18939   -0.00140

 Restricting large step in mode    7 eval= 3.6D-02 step=-4.3D-01 new=-3.0D-01
 Restricting large step in mode   12 eval= 4.3D-02 step=-3.5D-01 new=-3.0D-01
  no constraints, skipping    0.0000000000000000     
  no constraints, skipping    0.0000000000000000     
  no constraints, skipping    0.0000000000000000     
  no constraints, skipping    0.0000000000000000     
  no constraints, skipping    0.0000000000000000     
  no constraints, skipping    0.0000000000000000     
  no constraints, skipping    0.0000000000000000     
  no constraints, skipping    0.0000000000000000     

                                 NWChem DFT Module
                                 -----------------


                               Molecule conformer 0




 Summary of "ao basis" -> "ao basis" (spherical)
 ------------------------------------------------------------------------------
       Tag                 Description            Shells   Functions and Types
 ---------------- ------------------------------  ------  ---------------------
 C                           6-311G                  7       13   4s3p
 H                           6-311G                  3        3   3s


      Symmetry analysis of basis
      --------------------------

        a1         29
        a2          6
        b1         16
        b2         19

  Caching 1-el integrals 

            General Information
            -------------------
          SCF calculation type: DFT
          Wavefunction type:  closed shell.
          No. of atoms     :    10
          No. of electrons :    30
           Alpha electrons :    15
            Beta electrons :    15
          Charge           :     0
          Spin multiplicity:     1
          Use of symmetry is: on ; symmetry adaption is: on 
          Maximum number of iterations: ***
          This is a Direct SCF calculation.
          AO basis - number of functions:    70
                     number of shells:    46
          Convergence on energy requested:  1.00D-06
          Convergence on density requested:  1.00D-05
          Convergence on gradient requested:  5.00D-04

              XC Information
              --------------
                         B3LYP Method XC Potential
                     Hartree-Fock (Exact) Exchange  0.200          
                        Slater Exchange Functional  0.800 local    
                    Becke 1988 Exchange Functional  0.720 non-local
              Lee-Yang-Parr Correlation Functional  0.810          
                  VWN I RPA Correlation Functional  0.190 local    

             Grid Information
             ----------------
          Grid used for XC integration:  fine      
          Radial quadrature: Mura-Knowles        
          Angular quadrature: Lebedev. 
          Tag              B.-S. Rad. Rad. Pts. Rad. Cut. Ang. Pts.
          ---              ---------- --------- --------- ---------
          C                   0.70       70          10.0       590
          H                   0.35       60          11.0       590
          Grid pruning is: on 
          Number of quadrature shells:   320
          Spatial weights used:  Erf1

          Convergence Information
          -----------------------
          Convergence aids based upon iterative change in 
          total energy or number of iterations. 
          Levelshifting, if invoked, occurs when the 
          HOMO/LUMO gap drops below (HL_TOL):  1.00D-02
          DIIS, if invoked, will attempt to extrapolate 
          using up to (NFOCK): 10 stored Fock matrices.

                    Damping( 0%)  Levelshifting(0.5)       DIIS
                  --------------- ------------------- ---------------
          dE  on:    start            ASAP                start   
          dE off:    2 iters        *** iters           *** iters 


      Screening Tolerance Information
      -------------------------------
          Density screening/tol_rho:  1.00D-10
          AO Gaussian exp screening on grid/accAOfunc:  14
          CD Gaussian exp screening on grid/accCDfunc:  20
          XC Gaussian exp screening on grid/accXCfunc:  20
          Schwarz screening/accCoul:  1.00D-08

          Performing ZORA calculations
          ----------------------------


      Superposition of Atomic Density Guess
      -------------------------------------

 Sum of atomic energies:        -153.67306699

 Read atomic ZORA corrections from ./C1C2C1C2_mol_5_conformer_0.zora_sf

 Forcing recalculation of ZORA corrections
       Generating atomic ZORA corrections
       ----------------------------------

 In dft_scf:: zora:Knucl= F

 Grid_pts file          = ./C1C2C1C2_mol_5_conformer_0.gridpts.00
 Record size in doubles =  12289        No. of grid_pts per rec  =   3070
 Max. records in memory =      3        Max. recs in file   =     13567

 Grid integrated density:      29.999992851794
 Requested integration accuracy:   0.10E-06

 Wrote atomic ZORA corrections to ./C1C2C1C2_mol_5_conformer_0.zora_sf


 Loading old vectors from job with title :

Molecule conformer 0


      Symmetry analysis of molecular orbitals - initial
      -------------------------------------------------

  Numbering of irreducible representations: 

     1 a1          2 a2          3 b1          4 b2      

  Orbital symmetries:

     1 b2          2 a1          3 a1          4 b1          5 a1      
     6 b2          7 a1          8 b1          9 a1         10 b2      
    11 b2         12 a1         13 a2         14 b1         15 a1      
    16 a1         17 b1         18 a1         19 b2         20 b1      
    21 b2         22 a1         23 a2         24 b1         25 a1      

   Time after variat. SCF:     27.1
   Time prior to 1st pass:     27.1

           Memory utilization after 1st SCF pass: 
           Heap Space remaining (MW):      131.03           131029058
          Stack Space remaining (MW):      131.06           131061516

   convergence    iter        energy       DeltaE   RMS-Dens  Diis-err    time
 ---------------- ----- ----------------- --------- --------- ---------  ------
 d= 0,ls=0.0,diis     1   -155.9945652374 -2.71D+02  3.37D-03  2.04D-02    28.6
 d= 0,ls=0.0,diis     2   -155.9979005971 -3.34D-03  7.87D-04  1.96D-03    30.7
 d= 0,ls=0.0,diis     3   -155.9979771824 -7.66D-05  3.88D-04  1.51D-03    32.4
 d= 0,ls=0.0,diis     4   -155.9981690681 -1.92D-04  4.14D-05  6.98D-06    34.3
 d= 0,ls=0.0,diis     5   -155.9981695898 -5.22D-07  2.29D-05  2.70D-06    35.9
 d= 0,ls=0.0,diis     6   -155.9981699346 -3.45D-07  5.43D-06  3.95D-08    37.3
(nogshift,skip_gshiftAOev,done_Fji)=( 1,F,F)


         Total DFT energy =     -155.998169934621
      One electron energy =     -435.542128689044
           Coulomb energy =      188.454834074944
    Exchange-Corr. energy =      -23.946363949303
 Nuclear repulsion energy =      115.035488628783

       Scaling correction =        0.035077386459

 Numeric. integr. density =       29.999997206768

     Total iterative time =     10.3s



                  Occupations of the irreducible representations
                  ----------------------------------------------

                     irrep           alpha         beta
                     --------     --------     --------
                     a1                7.0          7.0
                     a2                1.0          1.0
                     b1                3.0          3.0
                     b2                4.0          4.0


 center of mass
 --------------
 x =   0.00000000 y =   0.00000000 z =  -0.00505961

 moments of inertia (a.u.)
 ------------------
         202.550355754260           0.000000000000           0.000000000000
           0.000000000000          95.395727469410           0.000000000000
           0.000000000000           0.000000000000         235.881361344582
 Line search: 
     step= 1.00 grad=-2.6D-02 hess= 7.1D-03 energy=   -155.998170 mode=downhill
 new step= 1.87                   predicted energy=   -156.003455
  no constraints, skipping    0.0000000000000000     
  no constraints, skipping    0.0000000000000000     
  no constraints, skipping    0.0000000000000000     
  no constraints, skipping    0.0000000000000000     
  no constraints, skipping    0.0000000000000000     
  no constraints, skipping    0.0000000000000000     
  no constraints, skipping    0.0000000000000000     
  no constraints, skipping    0.0000000000000000     

          --------
          Step   1
          --------


                         Geometry "geometry" -> "geometry"
                         ---------------------------------

 Output coordinates in angstroms (scale by  1.889725989 to convert to a.u.)

  No.       Tag          Charge          X              Y              Z
 ---- ---------------- ---------- -------------- -------------- --------------
    1 C                    6.0000     0.00000000    -1.18874576    -0.22570703
    2 C                    6.0000    -0.82192591     0.00000000     0.21493505
    3 C                    6.0000     0.82192591     0.00000000     0.21493505
    4 C                    6.0000     0.00000000     1.18874576    -0.22570703
    5 H                    1.0000     0.00000000    -1.98864059     0.45041576
    6 H                    1.0000     0.00000000    -1.41327188    -1.26150138
    7 H                    1.0000    -1.20713644     0.00000000     1.20476112
    8 H                    1.0000     1.20713644     0.00000000     1.20476112
    9 H                    1.0000     0.00000000     1.41327188    -1.26150138
   10 H                    1.0000     0.00000000     1.98864059     0.45041576

      Atomic Mass 
      ----------- 

      C                 12.000000
      H                  1.007825


 Effective nuclear repulsion energy (a.u.)     115.4183705717

            Nuclear Dipole moment (a.u.) 
            ----------------------------
        X                 Y               Z
 ---------------- ---------------- ----------------
     0.0000000000     0.0000000000     1.2436046059

      Symmetry information
      --------------------

 Group name             C2v       
 Group number             16
 Group order               4
 No. of unique centers     5

      Symmetry unique atoms

     1    2    5    6    7


                                 NWChem DFT Module
                                 -----------------


                               Molecule conformer 0




 Summary of "ao basis" -> "ao basis" (spherical)
 ------------------------------------------------------------------------------
       Tag                 Description            Shells   Functions and Types
 ---------------- ------------------------------  ------  ---------------------
 C                           6-311G                  7       13   4s3p
 H                           6-311G                  3        3   3s


      Symmetry analysis of basis
      --------------------------

        a1         29
        a2          6
        b1         16
        b2         19

  Caching 1-el integrals 

            General Information
            -------------------
          SCF calculation type: DFT
          Wavefunction type:  closed shell.
          No. of atoms     :    10
          No. of electrons :    30
           Alpha electrons :    15
            Beta electrons :    15
          Charge           :     0
          Spin multiplicity:     1
          Use of symmetry is: on ; symmetry adaption is: on 
          Maximum number of iterations: ***
          This is a Direct SCF calculation.
          AO basis - number of functions:    70
                     number of shells:    46
          Convergence on energy requested:  1.00D-06
          Convergence on density requested:  1.00D-05
          Convergence on gradient requested:  5.00D-04

              XC Information
              --------------
                         B3LYP Method XC Potential
                     Hartree-Fock (Exact) Exchange  0.200          
                        Slater Exchange Functional  0.800 local    
                    Becke 1988 Exchange Functional  0.720 non-local
              Lee-Yang-Parr Correlation Functional  0.810          
                  VWN I RPA Correlation Functional  0.190 local    

             Grid Information
             ----------------
          Grid used for XC integration:  fine      
          Radial quadrature: Mura-Knowles        
          Angular quadrature: Lebedev. 
          Tag              B.-S. Rad. Rad. Pts. Rad. Cut. Ang. Pts.
          ---              ---------- --------- --------- ---------
          C                   0.70       70          10.0       590
          H                   0.35       60          11.0       590
          Grid pruning is: on 
          Number of quadrature shells:   320
          Spatial weights used:  Erf1

          Convergence Information
          -----------------------
          Convergence aids based upon iterative change in 
          total energy or number of iterations. 
          Levelshifting, if invoked, occurs when the 
          HOMO/LUMO gap drops below (HL_TOL):  1.00D-02
          DIIS, if invoked, will attempt to extrapolate 
          using up to (NFOCK): 10 stored Fock matrices.

                    Damping( 0%)  Levelshifting(0.5)       DIIS
                  --------------- ------------------- ---------------
          dE  on:    start            ASAP                start   
          dE off:    2 iters        *** iters           *** iters 


      Screening Tolerance Information
      -------------------------------
          Density screening/tol_rho:  1.00D-10
          AO Gaussian exp screening on grid/accAOfunc:  14
          CD Gaussian exp screening on grid/accCDfunc:  20
          XC Gaussian exp screening on grid/accXCfunc:  20
          Schwarz screening/accCoul:  1.00D-08

          Performing ZORA calculations
          ----------------------------


      Superposition of Atomic Density Guess
      -------------------------------------

 Sum of atomic energies:        -153.67306699

 Read atomic ZORA corrections from ./C1C2C1C2_mol_5_conformer_0.zora_sf

 Forcing recalculation of ZORA corrections
       Generating atomic ZORA corrections
       ----------------------------------

 In dft_scf:: zora:Knucl= F

 Grid_pts file          = ./C1C2C1C2_mol_5_conformer_0.gridpts.00
 Record size in doubles =  12289        No. of grid_pts per rec  =   3070
 Max. records in memory =      3        Max. recs in file   =     13567


 Wrote atomic ZORA corrections to ./C1C2C1C2_mol_5_conformer_0.zora_sf


 Loading old vectors from job with title :

Molecule conformer 0


      Symmetry analysis of molecular orbitals - initial
      -------------------------------------------------

  Numbering of irreducible representations: 

     1 a1          2 a2          3 b1          4 b2      

  Orbital symmetries:

     1 b2          2 a1          3 a1          4 b1          5 a1      
     6 b2          7 a1          8 b1          9 a1         10 b2      
    11 a1         12 b2         13 a2         14 b1         15 a1      
    16 b1         17 a1         18 a1         19 b2         20 b1      
    21 b2         22 a1         23 b1         24 a2         25 b2      

   Time after variat. SCF:     44.6
   Time prior to 1st pass:     44.6

           Memory utilization after 1st SCF pass: 
           Heap Space remaining (MW):      131.03           131029058
          Stack Space remaining (MW):      131.06           131061516

   convergence    iter        energy       DeltaE   RMS-Dens  Diis-err    time
 ---------------- ----- ----------------- --------- --------- ---------  ------
 d= 0,ls=0.0,diis     1   -156.0005995283 -2.71D+02  2.55D-03  1.49D-02    46.7
 d= 0,ls=0.0,diis     2   -156.0030703039 -2.47D-03  6.41D-04  1.30D-03    48.5
 d= 0,ls=0.0,diis     3   -156.0031236245 -5.33D-05  3.06D-04  9.85D-04    50.9
 d= 0,ls=0.0,diis     4   -156.0032484976 -1.25D-04  3.46D-05  4.57D-06    52.7
 d= 0,ls=0.0,diis     5   -156.0032488839 -3.86D-07  1.62D-05  1.47D-06    54.7
 d= 0,ls=0.0,diis     6   -156.0032490680 -1.84D-07  4.28D-06  3.34D-08    56.3
(nogshift,skip_gshiftAOev,done_Fji)=( 1,F,F)


         Total DFT energy =     -156.003249068029
      One electron energy =     -436.315035368354
           Coulomb energy =      188.889218682902
    Exchange-Corr. energy =      -23.995802954282
 Nuclear repulsion energy =      115.418370571704

       Scaling correction =        0.035057486112

 Numeric. integr. density =       30.000000843656

     Total iterative time =     11.8s



                  Occupations of the irreducible representations
                  ----------------------------------------------

                     irrep           alpha         beta
                     --------     --------     --------
                     a1                7.0          7.0
                     a2                1.0          1.0
                     b1                3.0          3.0
                     b2                4.0          4.0


 center of mass
 --------------
 x =   0.00000000 y =   0.00000000 z =   0.01870548

 moments of inertia (a.u.)
 ------------------
         195.623970390729           0.000000000000           0.000000000000
           0.000000000000         100.057475741976           0.000000000000
           0.000000000000           0.000000000000         232.342932715873

            General Information
            -------------------
          SCF calculation type: DFT
          Wavefunction type:  closed shell.
          No. of atoms     :    10
          No. of electrons :    30
           Alpha electrons :    15
            Beta electrons :    15
          Charge           :     0
          Spin multiplicity:     1
          Use of symmetry is: on ; symmetry adaption is: on 
          Maximum number of iterations: ***
          This is a Direct SCF calculation.
          AO basis - number of functions:    70
                     number of shells:    46
          Convergence on energy requested:  1.00D-06
          Convergence on density requested:  1.00D-05
          Convergence on gradient requested:  5.00D-04

              XC Information
              --------------
                         B3LYP Method XC Potential
                     Hartree-Fock (Exact) Exchange  0.200          
                        Slater Exchange Functional  0.800 local    
                    Becke 1988 Exchange Functional  0.720 non-local
              Lee-Yang-Parr Correlation Functional  0.810          
                  VWN I RPA Correlation Functional  0.190 local    

             Grid Information
             ----------------
          Grid used for XC integration:  fine      
          Radial quadrature: Mura-Knowles        
          Angular quadrature: Lebedev. 
          Tag              B.-S. Rad. Rad. Pts. Rad. Cut. Ang. Pts.
          ---              ---------- --------- --------- ---------
          C                   0.70       70          10.0       590
          H                   0.35       60          11.0       590
          Grid pruning is: on 
          Number of quadrature shells:   320
          Spatial weights used:  Erf1

          Convergence Information
          -----------------------
          Convergence aids based upon iterative change in 
          total energy or number of iterations. 
          Levelshifting, if invoked, occurs when the 
          HOMO/LUMO gap drops below (HL_TOL):  1.00D-02
          DIIS, if invoked, will attempt to extrapolate 
          using up to (NFOCK): 10 stored Fock matrices.

                    Damping( 0%)  Levelshifting(0.5)       DIIS
                  --------------- ------------------- ---------------
          dE  on:    start            ASAP                start   
          dE off:    2 iters        *** iters           *** iters 


      Screening Tolerance Information
      -------------------------------
          Density screening/tol_rho:  1.00D-10
          AO Gaussian exp screening on grid/accAOfunc:  14
          CD Gaussian exp screening on grid/accCDfunc:  20
          XC Gaussian exp screening on grid/accXCfunc:  20
          Schwarz screening/accCoul:  1.00D-08



                            NWChem DFT Gradient Module
                            --------------------------


                               Molecule conformer 0



  charge          =   0.00
  wavefunction    = closed shell

  Using symmetry


                         DFT ENERGY GRADIENTS

    atom               coordinates                        gradient
                 x          y          z           x          y          z
   1 C       0.000000  -2.246404  -0.426524    0.000000  -0.038510   0.015724
   2 C      -1.553215   0.000000   0.406168   -0.012947   0.000000  -0.010023
   3 C       1.553215   0.000000   0.406168    0.012947   0.000000  -0.010023
   4 C       0.000000   2.246404  -0.426524   -0.000000   0.038510   0.015724
   5 H       0.000000  -3.757986   0.851162    0.000000   0.024669  -0.010387
   6 H       0.000000  -2.670697  -2.383892    0.000000   0.009648   0.015177
   7 H      -2.281157   0.000000   2.276668    0.010982   0.000000  -0.010492
   8 H       2.281157   0.000000   2.276668   -0.010982   0.000000  -0.010492
   9 H       0.000000   2.670697  -2.383892   -0.000000  -0.009648   0.015177
  10 H       0.000000   3.757986   0.851162    0.000000  -0.024669  -0.010387

                 ----------------------------------------
                 |  Time  |  1-e(secs)   |  2-e(secs)   |
                 ----------------------------------------
                 |  CPU   |       0.00   |       0.03   |
                 ----------------------------------------
                 |  WALL  |       0.00   |       0.03   |
                 ----------------------------------------
  no constraints, skipping    0.0000000000000000     

  Step       Energy      Delta E   Gmax     Grms     Xrms     Xmax   Walltime
  ---- ---------------- -------- -------- -------- -------- -------- --------
@    1    -156.00324907 -2.4D-02  0.02555  0.00568  0.10092  0.21826     57.9
                                                                    



                                Z-matrix (autoz)
                                -------- 

 Units are Angstrom for bonds and degrees for angles

      Type          Name      I     J     K     L     M      Value     Gradient
      ----------- --------  ----- ----- ----- ----- ----- ---------- ----------
    1 Stretch                  1     2                       1.51091   -0.00067
    2 Stretch                  1     3                       1.51091   -0.00067
    3 Stretch                  1     5                       1.04737   -0.02555
    4 Stretch                  1     6                       1.05985   -0.01688
    5 Stretch                  2     3                       1.64385   -0.00050
    6 Stretch                  2     4                       1.51091   -0.00067
    7 Stretch                  2     7                       1.06214   -0.01376
    8 Stretch                  3     4                       1.51091   -0.00067
    9 Stretch                  3     8                       1.06214   -0.01376
   10 Stretch                  4     9                       1.05985   -0.01688
   11 Stretch                  4    10                       1.04737   -0.02555
   12 Bend                     1     2     3                57.04402   -0.00009
   13 Bend                     1     2     4               103.77039    0.00122
   14 Bend                     1     2     7               117.97440   -0.00173
   15 Bend                     1     3     2                57.04402   -0.00009
   16 Bend                     1     3     4               103.77039    0.00122
   17 Bend                     1     3     8               117.97440   -0.00173
   18 Bend                     2     1     3                65.91196    0.00019
   19 Bend                     2     1     5               114.36887   -0.00082
   20 Bend                     2     1     6               116.85263   -0.00127
   21 Bend                     2     3     4                57.04402   -0.00009
   22 Bend                     2     3     8               111.26449   -0.00117
   23 Bend                     2     4     3                65.91196    0.00019
   24 Bend                     2     4     9               116.85263   -0.00127
   25 Bend                     2     4    10               114.36887   -0.00082
   26 Bend                     3     1     5               114.36887   -0.00082
   27 Bend                     3     1     6               116.85263   -0.00127
   28 Bend                     3     2     4                57.04402   -0.00009
   29 Bend                     3     2     7               111.26449   -0.00117
   30 Bend                     3     4     9               116.85263   -0.00127
   31 Bend                     3     4    10               114.36887   -0.00082
   32 Bend                     4     2     7               117.97440   -0.00173
   33 Bend                     4     3     8               117.97440   -0.00173
   34 Bend                     5     1     6               117.97604    0.00256
   35 Bend                     9     4    10               117.97604    0.00256
   36 Torsion                  1     2     3     4         139.32272    0.00291
   37 Torsion                  1     2     3     8        -110.33864    0.00146
   38 Torsion                  1     2     4     3         -34.27054    0.00215
   39 Torsion                  1     2     4     9          74.89119    0.00112
   40 Torsion                  1     2     4    10        -141.34801    0.00275
   41 Torsion                  1     3     2     4        -139.32272   -0.00291
   42 Torsion                  1     3     2     7         110.33864   -0.00146
   43 Torsion                  1     3     4     2          34.27054   -0.00215
   44 Torsion                  1     3     4     9         -74.89119   -0.00112
   45 Torsion                  1     3     4    10         141.34801   -0.00275
   46 Torsion                  2     1     3     4         -34.27054    0.00215
   47 Torsion                  2     1     3     8          98.34092   -0.00053
   48 Torsion                  2     3     1     5        -107.07747    0.00061
   49 Torsion                  2     3     1     6         109.16172   -0.00103
   50 Torsion                  2     3     4     9        -109.16172    0.00103
   51 Torsion                  2     3     4    10         107.07747   -0.00061
   52 Torsion                  2     4     3     8         -98.34092    0.00053
   53 Torsion                  3     1     2     4          34.27054   -0.00215
   54 Torsion                  3     1     2     7         -98.34092    0.00053
   55 Torsion                  3     2     1     5         107.07747   -0.00061
   56 Torsion                  3     2     1     6        -109.16172    0.00103
   57 Torsion                  3     2     4     9         109.16172   -0.00103
   58 Torsion                  3     2     4    10        -107.07747    0.00061
   59 Torsion                  3     4     2     7          98.34092   -0.00053
   60 Torsion                  4     2     1     5         141.34801   -0.00275
   61 Torsion                  4     2     1     6         -74.89119   -0.00112
   62 Torsion                  4     2     3     8         110.33864   -0.00146
   63 Torsion                  4     3     1     5        -141.34801    0.00275
   64 Torsion                  4     3     1     6          74.89119    0.00112
   65 Torsion                  4     3     2     7        -110.33864    0.00146
   66 Torsion                  5     1     2     7           8.73656   -0.00007
   67 Torsion                  5     1     3     8          -8.73656    0.00007
   68 Torsion                  6     1     2     7         152.49736    0.00156
   69 Torsion                  6     1     3     8        -152.49736   -0.00156
   70 Torsion                  7     2     3     8           0.00000    0.00000
   71 Torsion                  7     2     4     9        -152.49736   -0.00156
   72 Torsion                  7     2     4    10          -8.73656    0.00007
   73 Torsion                  8     3     4     9         152.49736    0.00156
   74 Torsion                  8     3     4    10           8.73656   -0.00007

 Restricting large step in mode    1 eval= 2.0D-02 step=-4.7D-01 new=-3.0D-01
  no constraints, skipping    0.0000000000000000     
  no constraints, skipping    0.0000000000000000     
  no constraints, skipping    0.0000000000000000     
  no constraints, skipping    0.0000000000000000     
  no constraints, skipping    0.0000000000000000     
  no constraints, skipping    0.0000000000000000     
  no constraints, skipping    0.0000000000000000     
  no constraints, skipping    0.0000000000000000     

                                 NWChem DFT Module
                                 -----------------


                               Molecule conformer 0




 Summary of "ao basis" -> "ao basis" (spherical)
 ------------------------------------------------------------------------------
       Tag                 Description            Shells   Functions and Types
 ---------------- ------------------------------  ------  ---------------------
 C                           6-311G                  7       13   4s3p
 H                           6-311G                  3        3   3s


      Symmetry analysis of basis
      --------------------------

        a1         29
        a2          6
        b1         16
        b2         19

  Caching 1-el integrals 

            General Information
            -------------------
          SCF calculation type: DFT
          Wavefunction type:  closed shell.
          No. of atoms     :    10
          No. of electrons :    30
           Alpha electrons :    15
            Beta electrons :    15
          Charge           :     0
          Spin multiplicity:     1
          Use of symmetry is: on ; symmetry adaption is: on 
          Maximum number of iterations: ***
          This is a Direct SCF calculation.
          AO basis - number of functions:    70
                     number of shells:    46
          Convergence on energy requested:  1.00D-06
          Convergence on density requested:  1.00D-05
          Convergence on gradient requested:  5.00D-04

              XC Information
              --------------
                         B3LYP Method XC Potential
                     Hartree-Fock (Exact) Exchange  0.200          
                        Slater Exchange Functional  0.800 local    
                    Becke 1988 Exchange Functional  0.720 non-local
              Lee-Yang-Parr Correlation Functional  0.810          
                  VWN I RPA Correlation Functional  0.190 local    

             Grid Information
             ----------------
          Grid used for XC integration:  fine      
          Radial quadrature: Mura-Knowles        
          Angular quadrature: Lebedev. 
          Tag              B.-S. Rad. Rad. Pts. Rad. Cut. Ang. Pts.
          ---              ---------- --------- --------- ---------
          C                   0.70       70          10.0       590
          H                   0.35       60          11.0       590
          Grid pruning is: on 
          Number of quadrature shells:   320
          Spatial weights used:  Erf1

          Convergence Information
          -----------------------
          Convergence aids based upon iterative change in 
          total energy or number of iterations. 
          Levelshifting, if invoked, occurs when the 
          HOMO/LUMO gap drops below (HL_TOL):  1.00D-02
          DIIS, if invoked, will attempt to extrapolate 
          using up to (NFOCK): 10 stored Fock matrices.

                    Damping( 0%)  Levelshifting(0.5)       DIIS
                  --------------- ------------------- ---------------
          dE  on:    start            ASAP                start   
          dE off:    2 iters        *** iters           *** iters 


      Screening Tolerance Information
      -------------------------------
          Density screening/tol_rho:  1.00D-10
          AO Gaussian exp screening on grid/accAOfunc:  14
          CD Gaussian exp screening on grid/accCDfunc:  20
          XC Gaussian exp screening on grid/accXCfunc:  20
          Schwarz screening/accCoul:  1.00D-08

          Performing ZORA calculations
          ----------------------------


      Superposition of Atomic Density Guess
      -------------------------------------

 Sum of atomic energies:        -153.67306699

 Read atomic ZORA corrections from ./C1C2C1C2_mol_5_conformer_0.zora_sf

 Forcing recalculation of ZORA corrections
       Generating atomic ZORA corrections
       ----------------------------------

 In dft_scf:: zora:Knucl= F

 Grid_pts file          = ./C1C2C1C2_mol_5_conformer_0.gridpts.00
 Record size in doubles =  12289        No. of grid_pts per rec  =   3070
 Max. records in memory =      3        Max. recs in file   =     13567


 Wrote atomic ZORA corrections to ./C1C2C1C2_mol_5_conformer_0.zora_sf


 Loading old vectors from job with title :

Molecule conformer 0


      Symmetry analysis of molecular orbitals - initial
      -------------------------------------------------

  Numbering of irreducible representations: 

     1 a1          2 a2          3 b1          4 b2      

  Orbital symmetries:

     1 a1          2 b1          3 b2          4 a1          5 a1      
     6 b2          7 b1          8 a1          9 a1         10 b2      
    11 a1         12 b2         13 a2         14 b1         15 a1      
    16 b1         17 a1         18 a1         19 b2         20 b1      
    21 b2         22 a1         23 b1         24 a2         25 b2      

   Time after variat. SCF:     65.2
   Time prior to 1st pass:     65.2

           Memory utilization after 1st SCF pass: 
           Heap Space remaining (MW):      131.03           131029058
          Stack Space remaining (MW):      131.06           131061516

   convergence    iter        energy       DeltaE   RMS-Dens  Diis-err    time
 ---------------- ----- ----------------- --------- --------- ---------  ------
 d= 0,ls=0.0,diis     1   -156.0080452489 -2.71D+02  1.93D-03  7.03D-03    67.1
 d= 0,ls=0.0,diis     2   -156.0089736188 -9.28D-04  7.34D-04  1.52D-03    69.6
 d= 0,ls=0.0,diis     3   -156.0090826673 -1.09D-04  2.32D-04  7.30D-04    71.6
 d= 0,ls=0.0,diis     4   -156.0091713458 -8.87D-05  5.03D-05  3.94D-06    74.0
 d= 0,ls=0.0,diis     5   -156.0091717833 -4.37D-07  1.56D-05  9.70D-07    75.5
 d= 0,ls=0.0,diis     6   -156.0091719087 -1.25D-07  6.39D-06  1.96D-08    77.0
(nogshift,skip_gshiftAOev,done_Fji)=( 1,F,F)


         Total DFT energy =     -156.009171908678
      One electron energy =     -434.966598795081
           Coulomb energy =      188.195883403616
    Exchange-Corr. energy =      -23.941892161044
 Nuclear repulsion energy =      114.703435643831

       Scaling correction =        0.035068232707

 Numeric. integr. density =       29.999999069107

     Total iterative time =     11.9s



                  Occupations of the irreducible representations
                  ----------------------------------------------

                     irrep           alpha         beta
                     --------     --------     --------
                     a1                7.0          7.0
                     a2                1.0          1.0
                     b1                3.0          3.0
                     b2                4.0          4.0


 center of mass
 --------------
 x =   0.00000000 y =   0.00000000 z =   0.02900765

 moments of inertia (a.u.)
 ------------------
         196.074890132687           0.000000000000           0.000000000000
           0.000000000000         102.967857494588           0.000000000000
           0.000000000000           0.000000000000         232.069806870839
 Line search: 
     step= 1.00 grad=-8.6D-03 hess= 2.7D-03 energy=   -156.009172 mode=downhill
 new step= 1.62                   predicted energy=   -156.010182
  no constraints, skipping    0.0000000000000000     
  no constraints, skipping    0.0000000000000000     
  no constraints, skipping    0.0000000000000000     
  no constraints, skipping    0.0000000000000000     
  no constraints, skipping    0.0000000000000000     
  no constraints, skipping    0.0000000000000000     
  no constraints, skipping    0.0000000000000000     
  no constraints, skipping    0.0000000000000000     

          --------
          Step   2
          --------


                         Geometry "geometry" -> "geometry"
                         ---------------------------------

 Output coordinates in angstroms (scale by  1.889725989 to convert to a.u.)

  No.       Tag          Charge          X              Y              Z
 ---- ---------------- ---------- -------------- -------------- --------------
    1 C                    6.0000     0.00000000    -1.17095775    -0.23589219
    2 C                    6.0000    -0.82849420     0.00000000     0.24746714
    3 C                    6.0000     0.82849420     0.00000000     0.24746714
    4 C                    6.0000     0.00000000     1.17095775    -0.23589219
    5 H                    1.0000     0.00000000    -2.04408651     0.42688206
    6 H                    1.0000     0.00000000    -1.40079583    -1.30205032
    7 H                    1.0000    -1.25372218     0.00000000     1.24649684
    8 H                    1.0000     1.25372218     0.00000000     1.24649684
    9 H                    1.0000     0.00000000     1.40079583    -1.30205032
   10 H                    1.0000     0.00000000     2.04408651     0.42688206

      Atomic Mass 
      ----------- 

      C                 12.000000
      H                  1.007825


 Effective nuclear repulsion energy (a.u.)     114.2766148013

            Nuclear Dipole moment (a.u.) 
            ----------------------------
        X                 Y               Z
 ---------------- ---------------- ----------------
     0.0000000000     0.0000000000     1.6659001651

      Symmetry information
[...]
(dia2,par1)(k,t,iat1,spin)=(  2,  2,  9,  1)=(     6.37480789,     6.37480789,     1.14730130,     1.14730130) ppm
(dia2,par1)(k,t,iat1,spin)=(  3,  2,  9,  1)=(     0.73647849,     0.73647849,    -2.30582134,    -2.30582134) ppm
(dia2,par1)(k,t,iat1,spin)=(  1,  3,  9,  1)=(     0.00071754,     0.00071754,    -0.00139787,    -0.00139787) ppm
(dia2,par1)(k,t,iat1,spin)=(  2,  3,  9,  1)=(     2.25455057,     2.25455057,     0.47442421,     0.47442421) ppm
(dia2,par1)(k,t,iat1,spin)=(  3,  3,  9,  1)=(    -0.79157238,    -0.79157238,    -2.70443602,    -2.70443602) ppm
 Grid integrated density:      30.000003893308
 Requested integration accuracy:   0.10E-06
dia1(k,t,iat1,ispin)=(  1,  1, 10,  1)=(    18.12642519,    18.12642519) ppm
dia1(k,t,iat1,ispin)=(  1,  2, 10,  1)=(     0.00213010,     0.00213010) ppm
dia1(k,t,iat1,ispin)=(  1,  3, 10,  1)=(    -0.00152522,    -0.00152522) ppm
dia1(k,t,iat1,ispin)=(  2,  1, 10,  1)=(     0.00416448,     0.00416448) ppm
dia1(k,t,iat1,ispin)=(  2,  2, 10,  1)=(    39.10153400,    39.10153400) ppm
dia1(k,t,iat1,ispin)=(  2,  3, 10,  1)=(     8.20306259,     8.20306259) ppm
dia1(k,t,iat1,ispin)=(  3,  1, 10,  1)=(     0.00010332,     0.00010332) ppm
dia1(k,t,iat1,ispin)=(  3,  2, 10,  1)=(     8.09346898,     8.09346898) ppm
dia1(k,t,iat1,ispin)=(  3,  3, 10,  1)=(    21.84384351,    21.84384351) ppm
(dia2,par1)(k,t,iat1,spin)=(  1,  1, 10,  1)=(     6.00219258,     6.00219258,     1.23590087,     1.23590087) ppm
(dia2,par1)(k,t,iat1,spin)=(  2,  1, 10,  1)=(    -0.00005123,    -0.00005123,    -0.00041075,    -0.00041075) ppm
(dia2,par1)(k,t,iat1,spin)=(  3,  1, 10,  1)=(    -0.00040403,    -0.00040403,    -0.00285695,    -0.00285695) ppm
(dia2,par1)(k,t,iat1,spin)=(  1,  2, 10,  1)=(     0.00191872,     0.00191872,    -0.00026024,    -0.00026024) ppm
(dia2,par1)(k,t,iat1,spin)=(  2,  2, 10,  1)=(     0.04391113,     0.04391113,     0.23834445,     0.23834445) ppm
(dia2,par1)(k,t,iat1,spin)=(  3,  2, 10,  1)=(    -2.66434855,    -2.66434855,     0.07186917,     0.07186917) ppm
(dia2,par1)(k,t,iat1,spin)=(  1,  3, 10,  1)=(     0.00208862,     0.00208862,    -0.00231899,    -0.00231899) ppm
(dia2,par1)(k,t,iat1,spin)=(  2,  3, 10,  1)=(    -3.50279180,    -3.50279180,     0.44654798,     0.44654798) ppm
(dia2,par1)(k,t,iat1,spin)=(  3,  3, 10,  1)=(     5.09822093,     5.09822093,    -3.43646075,    -3.43646075) ppm
 Grid integrated density:      30.000003893308
 Requested integration accuracy:   0.10E-06

 Wrote ZORA NMR data to ./C1C2C1C2_mol_5_conformer_0.zora_nmrcs

(nogshift,skip_gshiftAOev,done_Fji)=( 1,F,T)


         Total DFT energy =     -156.022697143834
      One electron energy =     -437.067769158993
           Coulomb energy =      189.278179246871
    Exchange-Corr. energy =      -23.962455400699
 Nuclear repulsion energy =      115.629850921651

             COSMO energy =        0.099497247337

       Scaling correction =        0.035135982646

 Numeric. integr. density =       30.000001527336

     Total iterative time =     51.2s


                                   COSMO solvation results
                                   -----------------------

                 gas phase energy =      -156.020167197802
                 sol phase energy =      -156.022697143834
 (electrostatic) solvation energy =         0.002529946031 (    1.59 kcal/mol)

 center of mass
 --------------
 x =   0.00000000 y =  -0.00000000 z =   0.16243393

 moments of inertia (a.u.)
 ------------------
         195.730671092604           0.000000000000           0.000000000000
           0.000000000000         105.241353330009           0.000000000000
           0.000000000000           0.000000000000         218.542060444836

            Scalar ZORA NMR Shielding
            -------------------------


          -----------------------------------------
          Chemical Shielding Tensors (GIAO, in ppm)
          -----------------------------------------


 Read ZORA NMR data from ./C1C2C1C2_mol_5_conformer_0.zora_nmrcs

    0 giaofock schwarz done =      98.74%
    0 giaofock schwarz done =      97.68%
                                NWChem CPHF Module
                                ------------------



 solvent parameters
 solvname_short: cdcl3   
 solvname_long:  unknown                            
 dielec:       78.4000
 dielecinf:     1.7769

          ---------------
          -cosmo- solvent
          ---------------
 Cosmo: York-Karplus, doi: 10.1021/jp992097l
 dielectric constant -eps-     =  78.40
 screen = (eps-1)/(eps    )    =   0.98724
 surface charge correction     = lagrangian
 -lineq- algorithm             =   0
 -bem- low  level              =   2
 -bem- from -octahedral-
 gaussian surface charge width =   0.98000
 degree of switching           =   1.00000
 switching function tolerance  =   0.00010
 atomic radii = 
 --------------
    1  6.000  2.000
    2  6.000  2.000
    3  6.000  2.000
    4  6.000  2.000
    5  1.000  1.300
    6  1.000  1.300
    7  1.000  1.300
    8  1.000  1.300
    9  1.000  1.300
   10  1.000  1.300

 solvent accessible surface
 --------------------------

 ---------- ATOMIC COORDINATES (A.U.) ------------ VDWR(ANG.) --
     1    0.00000000   -2.16055923   -0.43692273     2.000
     2   -1.42632920    0.00000000    0.76991275     2.000
     3    1.42632920    0.00000000    0.76991275     2.000
     4    0.00000000    2.16055923   -0.43692273     2.000
     5    0.00000000   -3.94829374    0.56063683     1.300
     6    0.00000000   -2.34258440   -2.48243736     1.300
     7   -2.74612381    0.00000000    2.31239325     1.300
     8    2.74612381    0.00000000    2.31239325     1.300
     9    0.00000000    2.34258440   -2.48243736     1.300
    10    0.00000000    3.94829374    0.56063683     1.300
 number of segments per atom =         32
 number of   points per atom =         32
 atom (   nspa,  nppa )
 ----------------------
    1 (     14,     0 )       0
    2 (     16,     0 )       0
    3 (     16,     0 )       0
    4 (     14,     0 )       0
    5 (     16,     0 )       0
    6 (     16,     0 )       0
    7 (     12,     0 )       0
    8 (     12,     0 )       0
    9 (     16,     0 )       0
   10 (     16,     0 )       0
 number of -cosmo- surface points =      148
 molecular surface =     90.016 angstrom**2
 molecular volume  =     51.554 angstrom**3
 G(cav/disp)       =      1.310 kcal/mol
 ...... end of -cosmo- initialization ......


  scftype          =     RHF 
  nclosed          =       15
  nopen            =        0
  variables        =      825
  # of vectors     =        3
  tolerance        = 0.10D-03
  level shift      = 0.00D+00
  max iterations   =       50
  max subspace     =       30

 SCF residual:    1.4190590890826975E-004


Iterative solution of linear equations
  No. of variables      825
  No. of equations        3
  Maximum subspace       30
        Iterations       50
       Convergence  1.0D-04
        Start time    897.9


   iter   nsub   residual    time
   ----  ------  --------  ---------
     1      3    4.48D-01     900.1
     2      6    7.68D-03     902.2
     3      9    5.03D-04     904.4
     4     12    2.81D-05     906.4

 Wrote CPHF data to ./C1C2C1C2_mol_5_conformer_0.shieldcphf

 Calc. par tensor-> zora
      Atom:    1  H 
        Diamagnetic
     24.1429     -0.0036     -0.0002
     -0.0036     39.1567     -5.0647
     -0.0002     -5.0647     26.9553

        Paramagnetic
      2.4112      0.0029     -0.0003
      0.0029      1.1937      2.4629
     -0.0003      2.4629      0.4995

        Total Shielding Tensor
     26.5542     -0.0007     -0.0006
     -0.0007     40.3504     -2.6018
     -0.0006     -2.6018     27.4548

           isotropic =      31.4531
          anisotropy =      14.1037

          Principal Components and Axis System
                 1           2           3
               40.8556     26.9496     26.5542

      1        -0.0000     -0.0018      1.0000
      2         0.9817      0.1906      0.0004
      3        -0.1906      0.9817      0.0018



      Atom:    2  H 
        Diamagnetic
     22.9273     -0.0023     -0.0020
     -0.0023     27.4925      3.8178
     -0.0020      3.8178     39.4606

        Paramagnetic
      3.9521      0.0014      0.0007
      0.0014      3.1403     -0.2876
      0.0007     -0.2876     -0.8705

        Total Shielding Tensor
     26.8794     -0.0009     -0.0014
     -0.0009     30.6328      3.5302
     -0.0014      3.5302     38.5901

           isotropic =      32.0341
          anisotropy =      11.8446

          Principal Components and Axis System
                 1           2           3
               39.9305     29.2924     26.8794

      1        -0.0001     -0.0001      1.0000
      2         0.3550      0.9349      0.0002
      3         0.9349     -0.3550      0.0001



      Atom:    3  H 
        Diamagnetic
     30.8978     -0.0017     -8.2028
     -0.0017     24.3406      0.0015
     -8.2028      0.0015     32.3586

        Paramagnetic
     -0.1271     -0.0002      1.5275
     -0.0002      4.0259      0.0009
      1.5275      0.0009      2.8451

        Total Shielding Tensor
     30.7707     -0.0019     -6.6753
     -0.0019     28.3665      0.0025
     -6.6753      0.0025     35.2037

           isotropic =      31.4470
          anisotropy =      12.8609

          Principal Components and Axis System
                 1           2           3
               40.0209     28.3665     25.9535

      1        -0.5852      0.0001      0.8109
      2         0.0003      1.0000      0.0000
      3         0.8109     -0.0002      0.5852



      Atom:    4  H 
        Diamagnetic
     30.8754      0.0016      8.2064
      0.0016     24.3143      0.0016
      8.2064      0.0016     32.3381

        Paramagnetic
     -0.1239      0.0003     -1.5277
      0.0003      4.0427      0.0003
     -1.5277      0.0003      2.8367

        Total Shielding Tensor
     30.7516      0.0019      6.6787
      0.0019     28.3570      0.0019
      6.6787      0.0019     35.1748

           isotropic =      31.4278
          anisotropy =      12.8561

          Principal Components and Axis System
                 1           2           3
               39.9985     28.3570     25.9279

      1         0.5855      0.0000      0.8107
      2         0.0002      1.0000     -0.0002
      3         0.8107     -0.0003     -0.5855



      Atom:    5  H 
        Diamagnetic
     22.9101      0.0021     -0.0018
      0.0021     27.4813     -3.8194
     -0.0018     -3.8194     39.4446

        Paramagnetic
      3.9506     -0.0032      0.0011
     -0.0032      3.1406      0.2872
      0.0011      0.2872     -0.8792

        Total Shielding Tensor
     26.8607     -0.0011     -0.0007
     -0.0011     30.6218     -3.5322
     -0.0007     -3.5322     38.5654

           isotropic =      32.0160
          anisotropy =      11.8393

          Principal Components and Axis System
                 1           2           3
               39.9088     29.2784     26.8607

      1        -0.0000     -0.0005      1.0000
      2        -0.3555      0.9347      0.0005
      3         0.9347      0.3555      0.0002



      Atom:    6  H 
        Diamagnetic
     24.1286      0.0041      0.0001
      0.0041     39.1454      5.0647
      0.0001      5.0647     26.9421

        Paramagnetic
      2.4026     -0.0035      0.0000
     -0.0035      1.1891     -2.4656
      0.0000     -2.4656      0.4938

        Total Shielding Tensor
     26.5312      0.0006      0.0002
      0.0006     40.3346      2.5991
      0.0002      2.5991     27.4358

           isotropic =      31.4339
          anisotropy =      14.1071

          Principal Components and Axis System
                 1           2           3
               40.8386     26.9318     26.5312

      1         0.0000      0.0001      1.0000
      2         0.9817     -0.1904     -0.0000
      3         0.1904      0.9817     -0.0001




 Task  times  cpu:       74.4s     wall:       71.4s


                                NWChem Input Module
                                -------------------


 Summary of allocated global arrays
-----------------------------------
  array 0 => double precision sf 1(70,70),  handle: -987 
  array 1 => double precision sf 1(70,70),  handle: -986 
  array 2 => double precision sf 1(70,70),  handle: -985 
  array 3 => double precision sf 1(70,70),  handle: -984 
  array 4 => double precision sf 1(70,70),  handle: -983 
  array 5 => double precision sf 1(70,70),  handle: -982 
  array 6 => double precision sf 1(70,70),  handle: -981 
  array 7 => double precision sf 1(70,70),  handle: -980 
  array 8 => double precision sf 1(70,70),  handle: -979 
  array 9 => double precision sf 1(70,70),  handle: -978 
  array 10 => double precision sf 1(70,70),  handle: -977 
  array 11 => double precision sf 1(70,70),  handle: -976 
  array 12 => double precision sf 1(70,70),  handle: -975 
  array 13 => double precision sf 1(70,70),  handle: -974 
  array 14 => double precision sf 1(70,70),  handle: -973 
  array 15 => double precision sf 1(70,70),  handle: -972 
  array 16 => double precision sf 1(70,70),  handle: -971 
  array 17 => double precision sf 1(70,70),  handle: -970 
  array 18 => double precision sf 1(70,70),  handle: -969 
  array 19 => double precision sf 1(70,70),  handle: -968 
  array 20 => double precision sf 1(70,70),  handle: -967 
  array 21 => double precision sf 1(70,70),  handle: -966 
  array 22 => double precision sf 1(70,70),  handle: -965 
  array 23 => double precision sf 1(70,70),  handle: -964 
  array 24 => double precision sf 1(70,70),  handle: -963 
  array 25 => double precision sf 1(70,70),  handle: -962 
  array 26 => double precision sf 1(70,70),  handle: -961 
  array 27 => double precision sf 1(70,70),  handle: -960 
  array 28 => double precision sf 1(70,70),  handle: -959 
  array 29 => double precision sf 1(70,70),  handle: -958 
  array 30 => double precision sf 1(70,70),  handle: -957 
  array 31 => double precision sf 1(70,70),  handle: -956 
  array 32 => double precision sf 1(70,70),  handle: -955 
  array 33 => double precision sf 1(70,70),  handle: -954 
  array 34 => double precision sf 1(70,70),  handle: -953 
  array 35 => double precision sf 1(70,70),  handle: -952 
  array 36 => double precision sf 1(70,70),  handle: -951 
  array 37 => double precision sf 1(70,70),  handle: -950 
  array 38 => double precision sf 1(70,70),  handle: -949 
  array 39 => double precision sf 1(70,70),  handle: -948 
  array 40 => double precision sf 1(70,70),  handle: -947 
  array 41 => double precision sf 1(70,70),  handle: -946 
  array 42 => double precision sf 1(70,70),  handle: -945 
  array 43 => double precision sf 1(70,70),  handle: -944 
  array 44 => double precision sf 1(70,70),  handle: -943 
  array 45 => double precision sf 1(70,70),  handle: -942 
  array 46 => double precision sf 1(70,70),  handle: -941 
  array 47 => double precision sf 1(70,70),  handle: -940 
  array 48 => double precision sf 1(70,70),  handle: -939 
  array 49 => double precision sf 1(70,70),  handle: -938 
  array 50 => double precision sf 1(70,70),  handle: -937 



                         GA Statistics for process    0
                         ------------------------------

       create   destroy   get      put      acc     scatter   gather  read&inc
calls: 9188     8822     2.43e+05 5.41e+04 7.64e+04   60        0     6658     
number of processes/call 0.00e+00 0.00e+00 0.00e+00 0.00e+00 0.00e+00
bytes total:             3.59e+08 5.51e+07 2.84e+08 3.36e+02 0.00e+00 5.33e+04
bytes remote:            3.17e+08 4.52e+07 2.61e+08 -1.68e+02 0.00e+00 0.00e+00
Max memory consumed for GA by this process: 580576 bytes

MA_summarize_allocated_blocks: starting scan ...
MA_summarize_allocated_blocks: scan completed: 0 heap blocks, 0 stack blocks
MA usage statistics:

	allocation statistics:
					      heap	     stack
					      ----	     -----
	current number of blocks	         0	         0
	maximum number of blocks	        66	        59
	current total bytes		         0	         0
	maximum total bytes		   2004872	  27319128
	maximum total K-bytes		      2005	     27320
	maximum total M-bytes		         3	        28


                                     CITATION
                                     --------
                Please cite the following reference when publishing
                           results obtained with NWChem:

          E. Apr, E. J. Bylaska, W. A. de Jong, N. Govind, K. Kowalski,
       T. P. Straatsma, M. Valiev, H. J. J. van Dam, Y. Alexeev, J. Anchell,
       V. Anisimov, F. W. Aquino, R. Atta-Fynn, J. Autschbach, N. P. Bauman,
     J. C. Becca, D. E. Bernholdt, K. Bhaskaran-Nair, S. Bogatko, P. Borowski,
        J. Boschen, J. Brabec, A. Bruner, E. Caut, Y. Chen, G. N. Chuev,
      C. J. Cramer, J. Daily, M. J. O. Deegan, T. H. Dunning Jr., M. Dupuis,
   K. G. Dyall, G. I. Fann, S. A. Fischer, A. Fonari, H. Frchtl, L. Gagliardi,
      J. Garza, N. Gawande, S. Ghosh, K. Glaesemann, A. W. Gtz, J. Hammond,
       V. Helms, E. D. Hermes, K. Hirao, S. Hirata, M. Jacquelin, L. Jensen,
   B. G. Johnson, H. Jnsson, R. A. Kendall, M. Klemm, R. Kobayashi, V. Konkov,
      S. Krishnamoorthy, M. Krishnan, Z. Lin, R. D. Lins, R. J. Littlefield,
      A. J. Logsdail, K. Lopata, W. Ma, A. V. Marenich, J. Martin del Campo,
   D. Mejia-Rodriguez, J. E. Moore, J. M. Mullin, T. Nakajima, D. R. Nascimento,
    J. A. Nichols, P. J. Nichols, J. Nieplocha, A. Otero-de-la-Roza, B. Palmer,
    A. Panyala, T. Pirojsirikul, B. Peng, R. Peverati, J. Pittner, L. Pollack,
   R. M. Richard, P. Sadayappan, G. C. Schatz, W. A. Shelton, D. W. Silverstein,
   D. M. A. Smith, T. A. Soares, D. Song, M. Swart, H. L. Taylor, G. S. Thomas,
            V. Tipparaju, D. G. Truhlar, K. Tsemekhman, T. Van Voorhis,
     . Vzquez-Mayagoitia, P. Verma, O. Villa, A. Vishnu, K. D. Vogiatzis,
        D. Wang, J. H. Weare, M. J. Williamson, T. L. Windus, K. Woliski,
        A. T. Wong, Q. Wu, C. Yang, Q. Yu, M. Zacharias, Z. Zhang, Y. Zhao,
                                and R. J. Harrison
                        "NWChem: Past, present, and future
                         J. Chem. Phys. 152, 184102 (2020)
                               doi:10.1063/5.0004997

                                      AUTHORS
                                      -------
     E. Apra, E. J. Bylaska, N. Govind, K. Kowalski, M. Valiev, W. A. de Jong,
      T. P. Straatsma, H. J. J. van Dam, D. Wang, T. L. Windus, N. P. Bauman,
       A. Panyala, J. Hammond, J. Autschbach, K. Bhaskaran-Nair, J. Brabec,
    K. Lopata, S. A. Fischer, S. Krishnamoorthy, M. Jacquelin, W. Ma, M. Klemm,
       O. Villa, Y. Chen, V. Anisimov, F. Aquino, S. Hirata, M. T. Hackler,
           Eric Hermes, L. Jensen, J. E. Moore, J. C. Becca, V. Konjkov,
            D. Mejia-Rodriguez, T. Risthaus, M. Malagoli, A. Marenich,
   A. Otero-de-la-Roza, J. Mullin, P. Nichols, R. Peverati, J. Pittner, Y. Zhao,
        P.-D. Fan, A. Fonari, M. J. Williamson, R. J. Harrison, J. R. Rehr,
      M. Dupuis, D. Silverstein, D. M. A. Smith, J. Nieplocha, V. Tipparaju,
      M. Krishnan, B. E. Van Kuiken, A. Vazquez-Mayagoitia, M. Swart, Q. Wu,
   T. Van Voorhis, A. A. Auer, M. Nooijen, L. D. Crosby, E. Brown, G. Cisneros,
     G. I. Fann, H. Fruchtl, J. Garza, K. Hirao, R. A. Kendall, J. A. Nichols,
       K. Tsemekhman, K. Wolinski, J. Anchell, D. E. Bernholdt, P. Borowski,
       T. Clark, D. Clerc, H. Dachsel, M. J. O. Deegan, K. Dyall, D. Elwood,
      E. Glendening, M. Gutowski, A. C. Hess, J. Jaffe, B. G. Johnson, J. Ju,
        R. Kobayashi, R. Kutteh, Z. Lin, R. Littlefield, X. Long, B. Meng,
      T. Nakajima, S. Niu, L. Pollack, M. Rosing, K. Glaesemann, G. Sandrone,
      M. Stave, H. Taylor, G. Thomas, J. H. van Lenthe, A. T. Wong, Z. Zhang.

 Total times  cpu:      895.1s     wall:      906.6s
