 argument  1 = C1C2C1C2_mol_3_conformer_0.nw



============================== echo of input deck ==============================
start

title "Molecule conformer 0"

memory total 4000 mb

echo
geometry units angstroms
   C     -1.2698    -0.1638    -0.1199
   C     -0.0244     0.6300    -0.4439
   C      0.0343    -0.5475     0.5421
   C      1.2247    -0.2141    -0.3284
   H     -1.5835    -0.8563    -0.9284
   H     -1.9947     0.3553     0.5427
   H      0.0432     1.5772     0.1360
   H      0.1286    -0.1383     1.5724
   H      2.0697     0.2733     0.2030
   H      1.3719    -0.9158    -1.1756
end


basis spherical
* library 6-311G
end

driver
  maxiter 500
  xyz final
end

relativistic
  zora on
  zora:cutoff_NMR 1d-8
  zora:cutoff 1d-30
end

dft
  direct
  grid fine
  xc B3LYP
  mult 1
  maxiter 1500
  noprint "final vectors analysis" multipole
end

task dft optimize

task dft freq

property
  shielding 6 5 6 7 8 9 10
end

cosmo
   solvent cdcl3
end

task dft property
================================================================================


                                         
                                         


             Northwest Computational Chemistry Package (NWChem) 7.0.2
             --------------------------------------------------------


                    Environmental Molecular Sciences Laboratory
                       Pacific Northwest National Laboratory
                                Richland, WA 99352

                              Copyright (c) 1994-2020
                       Pacific Northwest National Laboratory
                            Battelle Memorial Institute

             NWChem is an open-source computational chemistry package
                        distributed under the terms of the
                      Educational Community License (ECL) 2.0
             A copy of the license is included with this distribution
                              in the LICENSE.TXT file

                                  ACKNOWLEDGMENT
                                  --------------

            This software and its documentation were developed at the
            EMSL at Pacific Northwest National Laboratory, a multiprogram
            national laboratory, operated for the U.S. Department of Energy
            by Battelle under Contract Number DE-AC05-76RL01830. Support
            for this work was provided by the Department of Energy Office
            of Biological and Environmental Research, Office of Basic
            Energy Sciences, and the Office of Advanced Scientific Computing.


           Job information
           ---------------

    hostname        = ponder
    program         = nwchem
    date            = Sat Aug  3 14:13:01 2024

    compiled        = Sat_Apr_09_17:12:10_2022
    source          = /build/nwchem-f1f4gx/nwchem-7.0.2/build-openmpi
    nwchem branch   = 7.0.2
    nwchem revision = N/A
    ga revision     = 5.8.1
    use scalapack   = T
    input           = C1C2C1C2_mol_3_conformer_0.nw
    prefix          = C1C2C1C2_mol_3_conformer_0.
    data base       = ./C1C2C1C2_mol_3_conformer_0.db
    status          = startup
    nproc           =       40
    time left       =     -1s



           Memory information
           ------------------

    heap     =  131071998 doubles =   1000.0 Mbytes
    stack    =  131071995 doubles =   1000.0 Mbytes
    global   =  262144000 doubles =   2000.0 Mbytes (distinct from heap & stack)
    total    =  524287993 doubles =   4000.0 Mbytes
    verify   = yes
    hardfail = no 


           Directory information
           ---------------------

  0 permanent = .
  0 scratch   = .




                                NWChem Input Module
                                -------------------


                               Molecule conformer 0
                               --------------------

 Scaling coordinates for geometry "geometry" by  1.889725989
 (inverse scale =  0.529177249)

 C2V symmetry detected

          ------
          auto-z
          ------
  no constraints, skipping    0.0000000000000000     
  no constraints, skipping    0.0000000000000000     


                             Geometry "geometry" -> ""
                             -------------------------

 Output coordinates in angstroms (scale by  1.889725989 to convert to a.u.)

  No.       Tag          Charge          X              Y              Z
 ---- ---------------- ---------- -------------- -------------- --------------
    1 C                    6.0000     0.00000000     1.25185189    -0.21745970
    2 C                    6.0000     0.76846404     0.00000000     0.14088909
    3 C                    6.0000    -0.76846404     0.00000000     0.14088909
    4 C                    6.0000     0.00000000    -1.25185189    -0.21745970
    5 H                    1.0000     0.00000000     1.48315856    -1.30291561
    6 H                    1.0000     0.00000000     2.03969774     0.56565939
    7 H                    1.0000     1.11953990     0.00000000     1.19667986
    8 H                    1.0000    -1.11953990     0.00000000     1.19667986
    9 H                    1.0000     0.00000000    -2.03969774     0.56565939
   10 H                    1.0000     0.00000000    -1.48315856    -1.30291561

      Atomic Mass 
      ----------- 

      C                 12.000000
      H                  1.007825


 Effective nuclear repulsion energy (a.u.)     114.6846710093

            Nuclear Dipole moment (a.u.) 
            ----------------------------
        X                 Y               Z
 ---------------- ---------------- ----------------
     0.0000000000     0.0000000000     0.0000000000

      Symmetry information
      --------------------

 Group name             C2v       
 Group number             16
 Group order               4
 No. of unique centers     5

      Symmetry unique atoms

     1    2    5    6    7



                                Z-matrix (autoz)
                                -------- 

 Units are Angstrom for bonds and degrees for angles

      Type          Name      I     J     K     L     M      Value
      ----------- --------  ----- ----- ----- ----- ----- ----------
    1 Stretch                  1     2                       1.51198
    2 Stretch                  1     3                       1.51198
    3 Stretch                  1     5                       1.10983
    4 Stretch                  1     6                       1.11084
    5 Stretch                  2     3                       1.53693
    6 Stretch                  2     4                       1.51198
    7 Stretch                  2     7                       1.11263
    8 Stretch                  3     4                       1.51198
    9 Stretch                  3     8                       1.11263
   10 Stretch                  4     9                       1.11084
   11 Stretch                  4    10                       1.10983
   12 Bend                     1     2     3                59.45266
   13 Bend                     1     2     4               111.77852
   14 Bend                     1     2     7               112.66050
   15 Bend                     1     3     2                59.45266
   16 Bend                     1     3     4               111.77852
   17 Bend                     1     3     8               112.66050
   18 Bend                     2     1     3                61.09468
   19 Bend                     2     1     5               113.85111
   20 Bend                     2     1     6               114.84266
   21 Bend                     2     3     4                59.45266
   22 Bend                     2     3     8               108.39321
   23 Bend                     2     4     3                61.09468
   24 Bend                     2     4     9               114.84266
   25 Bend                     2     4    10               113.85111
   26 Bend                     3     1     5               113.85111
   27 Bend                     3     1     6               114.84266
   28 Bend                     3     2     4                59.45266
   29 Bend                     3     2     7               108.39321
   30 Bend                     3     4     9               114.84266
   31 Bend                     3     4    10               113.85111
   32 Bend                     4     2     7               112.66050
   33 Bend                     4     3     8               112.66050
   34 Bend                     5     1     6               122.79802
   35 Bend                     9     4    10               122.79802
   36 Torsion                  1     2     3     4         148.05194
   37 Torsion                  1     2     3     8        -105.97403
   38 Torsion                  1     2     4     3         -29.38894
   39 Torsion                  1     2     4     9        -135.24520
   40 Torsion                  1     2     4    10          75.73572
   41 Torsion                  1     3     2     4        -148.05194
   42 Torsion                  1     3     2     7         105.97403
   43 Torsion                  1     3     4     2          29.38894
   44 Torsion                  1     3     4     9         135.24520
   45 Torsion                  1     3     4    10         -75.73572
   46 Torsion                  2     1     3     4         -29.38894
   47 Torsion                  2     1     3     8          98.66441
   48 Torsion                  2     3     1     5         105.12466
   49 Torsion                  2     3     1     6        -105.85626
   50 Torsion                  2     3     4     9         105.85626
   51 Torsion                  2     3     4    10        -105.12466
   52 Torsion                  2     4     3     8         -98.66441
   53 Torsion                  3     1     2     4          29.38894
   54 Torsion                  3     1     2     7         -98.66441
   55 Torsion                  3     2     1     5        -105.12466
   56 Torsion                  3     2     1     6         105.85626
   57 Torsion                  3     2     4     9        -105.85626
   58 Torsion                  3     2     4    10         105.12466
   59 Torsion                  3     4     2     7          98.66441
   60 Torsion                  4     2     1     5         -75.73572
   61 Torsion                  4     2     1     6         135.24520
   62 Torsion                  4     2     3     8         105.97403
   63 Torsion                  4     3     1     5          75.73572
   64 Torsion                  4     3     1     6        -135.24520
   65 Torsion                  4     3     2     7        -105.97403
   66 Torsion                  5     1     2     7         156.21093
   67 Torsion                  5     1     3     8        -156.21093
   68 Torsion                  6     1     2     7           7.19185
   69 Torsion                  6     1     3     8          -7.19185
   70 Torsion                  7     2     3     8           0.00000
   71 Torsion                  7     2     4     9          -7.19185
   72 Torsion                  7     2     4    10        -156.21093
   73 Torsion                  8     3     4     9           7.19185
   74 Torsion                  8     3     4    10         156.21093


            XYZ format geometry
            -------------------
    10
 geometry
 C                     0.00000000     1.25185189    -0.21745970
 C                     0.76846404     0.00000000     0.14088909
 C                    -0.76846404     0.00000000     0.14088909
 C                     0.00000000    -1.25185189    -0.21745970
 H                     0.00000000     1.48315856    -1.30291561
 H                     0.00000000     2.03969774     0.56565939
 H                     1.11953990     0.00000000     1.19667986
 H                    -1.11953990     0.00000000     1.19667986
 H                     0.00000000    -2.03969774     0.56565939
 H                     0.00000000    -1.48315856    -1.30291561

 ==============================================================================
                                internuclear distances
 ------------------------------------------------------------------------------
       center one      |      center two      | atomic units |  angstroms
 ------------------------------------------------------------------------------
    2 C                |   1 C                |     2.85723  |     1.51198
    3 C                |   1 C                |     2.85723  |     1.51198
    3 C                |   2 C                |     2.90437  |     1.53693
    4 C                |   2 C                |     2.85723  |     1.51198
    4 C                |   3 C                |     2.85723  |     1.51198
    5 H                |   1 C                |     2.09727  |     1.10983
    6 H                |   1 C                |     2.09919  |     1.11084
    7 H                |   2 C                |     2.10257  |     1.11263
    8 H                |   3 C                |     2.10257  |     1.11263
    9 H                |   4 C                |     2.09919  |     1.11084
   10 H                |   4 C                |     2.09727  |     1.10983
 ------------------------------------------------------------------------------
                         number of included internuclear distances:         11
 ==============================================================================



 ==============================================================================
                                 internuclear angles
 ------------------------------------------------------------------------------
        center 1       |       center 2       |       center 3       |  degrees
 ------------------------------------------------------------------------------
    2 C                |   1 C                |   3 C                |    61.09
    2 C                |   1 C                |   5 H                |   113.85
    2 C                |   1 C                |   6 H                |   114.84
    3 C                |   1 C                |   5 H                |   113.85
    3 C                |   1 C                |   6 H                |   114.84
    5 H                |   1 C                |   6 H                |   122.80
    2 C                |   1 C                |   3 C                |    61.09
    1 C                |   2 C                |   4 C                |   111.78
    1 C                |   2 C                |   7 H                |   112.66
    2 C                |   4 C                |   3 C                |    61.09
    3 C                |   2 C                |   7 H                |   108.39
    4 C                |   2 C                |   7 H                |   112.66
    3 C                |   1 C                |   2 C                |    61.09
    1 C                |   3 C                |   4 C                |   111.78
    1 C                |   3 C                |   8 H                |   112.66
    3 C                |   4 C                |   2 C                |    61.09
    2 C                |   3 C                |   8 H                |   108.39
    4 C                |   3 C                |   8 H                |   112.66
    2 C                |   4 C                |   3 C                |    61.09
    2 C                |   4 C                |   9 H                |   114.84
    2 C                |   4 C                |  10 H                |   113.85
    3 C                |   4 C                |   9 H                |   114.84
    3 C                |   4 C                |  10 H                |   113.85
    9 H                |   4 C                |  10 H                |   122.80
 ------------------------------------------------------------------------------
                            number of included internuclear angles:         24
 ==============================================================================





 Summary of "ao basis" -> "" (spherical)
 ------------------------------------------------------------------------------
       Tag                 Description            Shells   Functions and Types
 ---------------- ------------------------------  ------  ---------------------
 *                           6-311G                   on all atoms 




                           NWChem Geometry Optimization
                           ----------------------------




                               Molecule conformer 0


  no constraints, skipping    0.0000000000000000     
 maximum gradient threshold         (gmax) =   0.000450
 rms gradient threshold             (grms) =   0.000300
 maximum cartesian step threshold   (xmax) =   0.001800
 rms cartesian step threshold       (xrms) =   0.001200
 fixed trust radius                (trust) =   0.300000
 maximum step size to saddle      (sadstp) =   0.100000
 energy precision                  (eprec) =   5.0D-06
 maximum number of steps          (nptopt) =  500
 initial hessian option           (inhess) =    0
 line search option               (linopt) =    1
 hessian update option            (modupd) =    1
 saddle point option              (modsad) =    0
 initial eigen-mode to follow     (moddir) =    0
 initial variable to follow       (vardir) =    0
 follow first negative mode     (firstneg) =    T
 apply conjugacy                    (opcg) =    F
 source of zmatrix                         =   autoz   


          -------------------
          Energy Minimization
          -------------------


 Names of Z-matrix variables 
    1              2              3              4              5         
    6              7              8              9             10         
   11             12             13             14             15         
   16             17             18             19             20         
   21             22             23             24             25         
   26             27             28             29             30         
   31             32             33             34             35         
   36             37             38             39             40         
   41             42             43             44             45         
   46             47             48             49             50         
   51             52             53             54             55         
   56             57             58             59             60         
   61             62             63             64             65         
   66             67             68             69             70         
   71             72             73             74         

 Variables with the same non-blank name are constrained to be equal


 Using diagonal initial Hessian 
 Scaling for Hessian diagonals: bonds = 1.00  angles = 0.25  torsions = 0.10

          --------
          Step   0
          --------


                         Geometry "geometry" -> "geometry"
                         ---------------------------------

 Output coordinates in angstroms (scale by  1.889725989 to convert to a.u.)

  No.       Tag          Charge          X              Y              Z
 ---- ---------------- ---------- -------------- -------------- --------------
    1 C                    6.0000     0.00000000     1.25185189    -0.21745970
    2 C                    6.0000     0.76846404     0.00000000     0.14088909
    3 C                    6.0000    -0.76846404     0.00000000     0.14088909
    4 C                    6.0000     0.00000000    -1.25185189    -0.21745970
    5 H                    1.0000     0.00000000     1.48315856    -1.30291561
    6 H                    1.0000     0.00000000     2.03969774     0.56565939
    7 H                    1.0000     1.11953990     0.00000000     1.19667986
    8 H                    1.0000    -1.11953990     0.00000000     1.19667986
    9 H                    1.0000     0.00000000    -2.03969774     0.56565939
   10 H                    1.0000     0.00000000    -1.48315856    -1.30291561

      Atomic Mass 
      ----------- 

      C                 12.000000
      H                  1.007825


 Effective nuclear repulsion energy (a.u.)     114.6846710093

            Nuclear Dipole moment (a.u.) 
            ----------------------------
        X                 Y               Z
 ---------------- ---------------- ----------------
     0.0000000000     0.0000000000     0.0000000000

      Symmetry information
      --------------------

 Group name             C2v       
 Group number             16
 Group order               4
 No. of unique centers     5

      Symmetry unique atoms

     1    2    5    6    7


                                 NWChem DFT Module
                                 -----------------


                               Molecule conformer 0


                      Basis "ao basis" -> "ao basis" (spherical)
                      -----
  C (Carbon)
  ----------
            Exponent  Coefficients 
       -------------- ---------------------------------------------------------
  1 S  4.56324000E+03  0.001967
  1 S  6.82024000E+02  0.015231
  1 S  1.54973000E+02  0.076127
  1 S  4.44553000E+01  0.260801
  1 S  1.30290000E+01  0.616462
  1 S  1.82773000E+00  0.221006

  2 S  2.09642000E+01  0.114660
  2 S  4.80331000E+00  0.919999
  2 S  1.45933000E+00 -0.003031

  3 P  2.09642000E+01  0.040249
  3 P  4.80331000E+00  0.237594
  3 P  1.45933000E+00  0.815854

  4 S  4.83456000E-01  1.000000

  5 P  4.83456000E-01  1.000000

  6 S  1.45585000E-01  1.000000

  7 P  1.45585000E-01  1.000000

  H (Hydrogen)
  ------------
            Exponent  Coefficients 
       -------------- ---------------------------------------------------------
  1 S  3.38650000E+01  0.025494
  1 S  5.09479000E+00  0.190373
  1 S  1.15879000E+00  0.852161

  2 S  3.25840000E-01  1.000000

  3 S  1.02741000E-01  1.000000



 Summary of "ao basis" -> "ao basis" (spherical)
 ------------------------------------------------------------------------------
       Tag                 Description            Shells   Functions and Types
 ---------------- ------------------------------  ------  ---------------------
 C                           6-311G                  7       13   4s3p
 H                           6-311G                  3        3   3s




 Summary of "ao basis" -> "ao basis" (spherical)
 ------------------------------------------------------------------------------
       Tag                 Description            Shells   Functions and Types
 ---------------- ------------------------------  ------  ---------------------
 C                           6-311G                  7       13   4s3p
 H                           6-311G                  3        3   3s


      Symmetry analysis of basis
      --------------------------

        a1         29
        a2          6
        b1         16
        b2         19

  Caching 1-el integrals 

            General Information
            -------------------
          SCF calculation type: DFT
          Wavefunction type:  closed shell.
          No. of atoms     :    10
          No. of electrons :    30
           Alpha electrons :    15
            Beta electrons :    15
          Charge           :     0
          Spin multiplicity:     1
          Use of symmetry is: on ; symmetry adaption is: on 
          Maximum number of iterations: ***
          This is a Direct SCF calculation.
          AO basis - number of functions:    70
                     number of shells:    46
          Convergence on energy requested:  1.00D-06
          Convergence on density requested:  1.00D-05
          Convergence on gradient requested:  5.00D-04

              XC Information
              --------------
                         B3LYP Method XC Potential
                     Hartree-Fock (Exact) Exchange  0.200          
                        Slater Exchange Functional  0.800 local    
                    Becke 1988 Exchange Functional  0.720 non-local
              Lee-Yang-Parr Correlation Functional  0.810          
                  VWN I RPA Correlation Functional  0.190 local    

             Grid Information
             ----------------
          Grid used for XC integration:  fine      
          Radial quadrature: Mura-Knowles        
          Angular quadrature: Lebedev. 
          Tag              B.-S. Rad. Rad. Pts. Rad. Cut. Ang. Pts.
          ---              ---------- --------- --------- ---------
          C                   0.70       70          10.0       590
          H                   0.35       60          11.0       590
          Grid pruning is: on 
          Number of quadrature shells:   320
          Spatial weights used:  Erf1

          Convergence Information
          -----------------------
          Convergence aids based upon iterative change in 
          total energy or number of iterations. 
          Levelshifting, if invoked, occurs when the 
          HOMO/LUMO gap drops below (HL_TOL):  1.00D-02
          DIIS, if invoked, will attempt to extrapolate 
          using up to (NFOCK): 10 stored Fock matrices.

                    Damping( 0%)  Levelshifting(0.5)       DIIS
                  --------------- ------------------- ---------------
          dE  on:    start            ASAP                start   
          dE off:    2 iters        *** iters           *** iters 


      Screening Tolerance Information
      -------------------------------
          Density screening/tol_rho:  1.00D-10
          AO Gaussian exp screening on grid/accAOfunc:  14
          CD Gaussian exp screening on grid/accCDfunc:  20
          XC Gaussian exp screening on grid/accXCfunc:  20
          Schwarz screening/accCoul:  1.00D-08

          Performing ZORA calculations
          ----------------------------


      Superposition of Atomic Density Guess
      -------------------------------------

 Sum of atomic energies:        -153.67306699

 Read atomic ZORA corrections from ./C1C2C1C2_mol_3_conformer_0.zora_sf

 dft_zora_read: failed to open./C1C2C1C2_mol_3_conformer_0.zora_sf
 Forcing recalculation of ZORA corrections
       Generating atomic ZORA corrections
       ----------------------------------

 In dft_scf:: zora:Knucl= F

 Grid_pts file          = ./C1C2C1C2_mol_3_conformer_0.gridpts.00
 Record size in doubles =  12289        No. of grid_pts per rec  =   3070
 Max. records in memory =      3        Max. recs in file   =     13578

 Grid integrated density:      29.999985322270
 Requested integration accuracy:   0.10E-06

 Wrote atomic ZORA corrections to ./C1C2C1C2_mol_3_conformer_0.zora_sf


      Superposition of Atomic Density Guess
      -------------------------------------

 Sum of atomic energies:        -153.67306699

      Non-variational initial energy
      ------------------------------

 Total energy =    -156.684577
 1-e energy   =    -431.544877
 2-e energy   =     160.175629
 HOMO         =      -0.249852
 LUMO         =       0.040436


      Symmetry analysis of molecular orbitals - initial
      -------------------------------------------------

  Numbering of irreducible representations: 

     1 a1          2 a2          3 b1          4 b2      

  Orbital symmetries:

     1 a1          2 b2          3 a1          4 b1          5 a1      
     6 b2          7 b1          8 a1          9 a1         10 b2      
    11 a1         12 b2         13 a2         14 b1         15 a1      
    16 b1         17 a1         18 a1         19 b2         20 b1      
    21 a1         22 b2         23 a2         24 b1         25 a1      

   Time after variat. SCF:      5.4
   Time prior to 1st pass:      5.4
 Grid integrated density:      29.999991649988
 Requested integration accuracy:   0.10E-06

           Memory utilization after 1st SCF pass: 
           Heap Space remaining (MW):      131.03           131029062
          Stack Space remaining (MW):      131.06           131061508

   convergence    iter        energy       DeltaE   RMS-Dens  Diis-err    time
 ---------------- ----- ----------------- --------- --------- ---------  ------
 d= 0,ls=0.0,diis     1   -155.9267245633 -2.71D+02  1.44D-02  5.78D-01     7.1
 Grid integrated density:      29.999992723574
 Requested integration accuracy:   0.10E-06
 d= 0,ls=0.0,diis     2   -155.9699310366 -4.32D-02  8.15D-03  6.91D-02     9.0
 Grid integrated density:      29.999992556077
 Requested integration accuracy:   0.10E-06
 d= 0,ls=0.0,diis     3   -155.9733938473 -3.46D-03  2.21D-03  4.34D-02    10.7
 Grid integrated density:      29.999992588568
 Requested integration accuracy:   0.10E-06
 d= 0,ls=0.0,diis     4   -155.9788569245 -5.46D-03  3.99D-04  4.06D-04    12.9
 Grid integrated density:      29.999992611884
 Requested integration accuracy:   0.10E-06
 d= 0,ls=0.0,diis     5   -155.9788979844 -4.11D-05  1.61D-04  7.44D-05    14.3
 Grid integrated density:      29.999992606820
 Requested integration accuracy:   0.10E-06
  Resetting Diis
 d= 0,ls=0.0,diis     6   -155.9789079423 -9.96D-06  4.71D-05  1.37D-06    15.9
 Grid integrated density:      29.999992606197
 Requested integration accuracy:   0.10E-06
 d= 0,ls=0.0,diis     7   -155.9789081627 -2.20D-07  4.37D-06  1.49D-08    17.5
(nogshift,skip_gshiftAOev,done_Fji)=( 1,F,F)


         Total DFT energy =     -155.978908162731
      One electron energy =     -434.800980752754
           Coulomb energy =      188.030719487663
    Exchange-Corr. energy =      -23.893317906906
 Nuclear repulsion energy =      114.684671009266

       Scaling correction =        0.035100366661

 Numeric. integr. density =       29.999992606197

     Total iterative time =     12.1s



                  Occupations of the irreducible representations
                  ----------------------------------------------

                     irrep           alpha         beta
                     --------     --------     --------
                     a1                7.0          7.0
                     a2                1.0          1.0
                     b1                3.0          3.0
                     b2                4.0          4.0


 center of mass
 --------------
 x =   0.00000000 y =   0.00000000 z =  -0.03187566

 moments of inertia (a.u.)
 ------------------
         210.621801540240           0.000000000000           0.000000000000
           0.000000000000          90.163582230281           0.000000000000
           0.000000000000           0.000000000000         239.726353927736

            General Information
            -------------------
          SCF calculation type: DFT
          Wavefunction type:  closed shell.
          No. of atoms     :    10
          No. of electrons :    30
           Alpha electrons :    15
            Beta electrons :    15
          Charge           :     0
          Spin multiplicity:     1
          Use of symmetry is: on ; symmetry adaption is: on 
          Maximum number of iterations: ***
          This is a Direct SCF calculation.
          AO basis - number of functions:    70
                     number of shells:    46
          Convergence on energy requested:  1.00D-06
          Convergence on density requested:  1.00D-05
          Convergence on gradient requested:  5.00D-04

              XC Information
              --------------
                         B3LYP Method XC Potential
                     Hartree-Fock (Exact) Exchange  0.200          
                        Slater Exchange Functional  0.800 local    
                    Becke 1988 Exchange Functional  0.720 non-local
              Lee-Yang-Parr Correlation Functional  0.810          
                  VWN I RPA Correlation Functional  0.190 local    

             Grid Information
             ----------------
          Grid used for XC integration:  fine      
          Radial quadrature: Mura-Knowles        
          Angular quadrature: Lebedev. 
          Tag              B.-S. Rad. Rad. Pts. Rad. Cut. Ang. Pts.
          ---              ---------- --------- --------- ---------
          C                   0.70       70          10.0       590
          H                   0.35       60          11.0       590
          Grid pruning is: on 
          Number of quadrature shells:   320
          Spatial weights used:  Erf1

          Convergence Information
          -----------------------
          Convergence aids based upon iterative change in 
          total energy or number of iterations. 
          Levelshifting, if invoked, occurs when the 
          HOMO/LUMO gap drops below (HL_TOL):  1.00D-02
          DIIS, if invoked, will attempt to extrapolate 
          using up to (NFOCK): 10 stored Fock matrices.

                    Damping( 0%)  Levelshifting(0.5)       DIIS
                  --------------- ------------------- ---------------
          dE  on:    start            ASAP                start   
          dE off:    2 iters        *** iters           *** iters 


      Screening Tolerance Information
      -------------------------------
          Density screening/tol_rho:  1.00D-10
          AO Gaussian exp screening on grid/accAOfunc:  14
          CD Gaussian exp screening on grid/accCDfunc:  20
          XC Gaussian exp screening on grid/accXCfunc:  20
          Schwarz screening/accCoul:  1.00D-08



                            NWChem DFT Gradient Module
                            --------------------------


                               Molecule conformer 0



  charge          =   0.00
  wavefunction    = closed shell

  Using symmetry


                         DFT ENERGY GRADIENTS

    atom               coordinates                        gradient
                 x          y          z           x          y          z
   1 C       0.000000   2.365657  -0.410939    0.000000   0.026668   0.044420
   2 C       1.452186   0.000000   0.266242   -0.046505   0.000000  -0.066150
   3 C      -1.452186   0.000000   0.266242    0.046505   0.000000  -0.066150
   4 C       0.000000  -2.365657  -0.410939    0.000000  -0.026668   0.044420
   5 H       0.000000   2.802763  -2.462153    0.000000  -0.012188  -0.019850
   6 H       0.000000   3.854470   1.068941    0.000000   0.009414   0.020856
   7 H       2.115624   0.000000   2.261397   -0.008594   0.000000   0.020724
   8 H      -2.115624   0.000000   2.261397    0.008594   0.000000   0.020724
   9 H       0.000000  -3.854470   1.068941    0.000000  -0.009414   0.020856
  10 H       0.000000  -2.802763  -2.462153    0.000000   0.012188  -0.019850

                 ----------------------------------------
                 |  Time  |  1-e(secs)   |  2-e(secs)   |
                 ----------------------------------------
                 |  CPU   |       0.00   |       0.03   |
                 ----------------------------------------
                 |  WALL  |       0.00   |       0.03   |
                 ----------------------------------------
  no constraints, skipping    0.0000000000000000     

@ Step       Energy      Delta E   Gmax     Grms     Xrms     Xmax   Walltime
@ ---- ---------------- -------- -------- -------- -------- -------- --------
@    0    -155.97890816  0.0D+00  0.02138  0.00708  0.00000  0.00000     18.9
                                                                    



                                Z-matrix (autoz)
                                -------- 

 Units are Angstrom for bonds and degrees for angles

      Type          Name      I     J     K     L     M      Value     Gradient
      ----------- --------  ----- ----- ----- ----- ----- ---------- ----------
    1 Stretch                  1     2                       1.51198   -0.00497
    2 Stretch                  1     3                       1.51198   -0.00497
    3 Stretch                  1     5                       1.10983    0.01687
    4 Stretch                  1     6                       1.11084    0.02138
    5 Stretch                  2     3                       1.53693   -0.01780
    6 Stretch                  2     4                       1.51198   -0.00497
    7 Stretch                  2     7                       1.11263    0.01695
    8 Stretch                  3     4                       1.51198   -0.00497
    9 Stretch                  3     8                       1.11263    0.01695
   10 Stretch                  4     9                       1.11084    0.02138
   11 Stretch                  4    10                       1.10983    0.01687
   12 Bend                     1     2     3                59.45266    0.00490
   13 Bend                     1     2     4               111.77852    0.01173
   14 Bend                     1     2     7               112.66050   -0.00584
   15 Bend                     1     3     2                59.45266    0.00490
   16 Bend                     1     3     4               111.77852    0.01173
   17 Bend                     1     3     8               112.66050   -0.00584
   18 Bend                     2     1     3                61.09468   -0.00979
   19 Bend                     2     1     5               113.85111   -0.00154
   20 Bend                     2     1     6               114.84266    0.00185
   21 Bend                     2     3     4                59.45266    0.00490
   22 Bend                     2     3     8               108.39321   -0.00426
   23 Bend                     2     4     3                61.09468   -0.00979
   24 Bend                     2     4     9               114.84266    0.00185
   25 Bend                     2     4    10               113.85111   -0.00154
   26 Bend                     3     1     5               113.85111   -0.00154
   27 Bend                     3     1     6               114.84266    0.00185
   28 Bend                     3     2     4                59.45266    0.00490
   29 Bend                     3     2     7               108.39321   -0.00426
   30 Bend                     3     4     9               114.84266    0.00185
   31 Bend                     3     4    10               113.85111   -0.00154
   32 Bend                     4     2     7               112.66050   -0.00584
   33 Bend                     4     3     8               112.66050   -0.00584
   34 Bend                     5     1     6               122.79802    0.00277
   35 Bend                     9     4    10               122.79802    0.00277
   36 Torsion                  1     2     3     4         148.05194    0.00757
   37 Torsion                  1     2     3     8        -105.97403    0.00378
   38 Torsion                  1     2     4     3         -29.38894    0.00257
   39 Torsion                  1     2     4     9        -135.24520    0.00437
   40 Torsion                  1     2     4    10          75.73572   -0.00158
   41 Torsion                  1     3     2     4        -148.05194   -0.00757
   42 Torsion                  1     3     2     7         105.97403   -0.00378
   43 Torsion                  1     3     4     2          29.38894   -0.00257
   44 Torsion                  1     3     4     9         135.24520   -0.00437
   45 Torsion                  1     3     4    10         -75.73572    0.00158
   46 Torsion                  2     1     3     4         -29.38894    0.00257
   47 Torsion                  2     1     3     8          98.66441   -0.00041
   48 Torsion                  2     3     1     5         105.12466   -0.00415
   49 Torsion                  2     3     1     6        -105.85626    0.00180
   50 Torsion                  2     3     4     9         105.85626   -0.00180
   51 Torsion                  2     3     4    10        -105.12466    0.00415
   52 Torsion                  2     4     3     8         -98.66441    0.00041
   53 Torsion                  3     1     2     4          29.38894   -0.00257
   54 Torsion                  3     1     2     7         -98.66441    0.00041
   55 Torsion                  3     2     1     5        -105.12466    0.00415
   56 Torsion                  3     2     1     6         105.85626   -0.00180
   57 Torsion                  3     2     4     9        -105.85626    0.00180
   58 Torsion                  3     2     4    10         105.12466   -0.00415
   59 Torsion                  3     4     2     7          98.66441   -0.00041
   60 Torsion                  4     2     1     5         -75.73572    0.00158
   61 Torsion                  4     2     1     6         135.24520   -0.00437
   62 Torsion                  4     2     3     8         105.97403   -0.00378
   63 Torsion                  4     3     1     5          75.73572   -0.00158
   64 Torsion                  4     3     1     6        -135.24520    0.00437
   65 Torsion                  4     3     2     7        -105.97403    0.00378
   66 Torsion                  5     1     2     7         156.21093    0.00455
   67 Torsion                  5     1     3     8        -156.21093   -0.00455
   68 Torsion                  6     1     2     7           7.19185   -0.00140
   69 Torsion                  6     1     3     8          -7.19185    0.00140
   70 Torsion                  7     2     3     8           0.00000   -0.00000
   71 Torsion                  7     2     4     9          -7.19185    0.00140
   72 Torsion                  7     2     4    10        -156.21093   -0.00455
   73 Torsion                  8     3     4     9           7.19185   -0.00140
   74 Torsion                  8     3     4    10         156.21093    0.00455

 Restricting large step in mode    7 eval= 3.6D-02 step= 4.3D-01 new= 3.0D-01
 Restricting large step in mode   12 eval= 4.3D-02 step=-3.5D-01 new=-3.0D-01
  no constraints, skipping    0.0000000000000000     
  no constraints, skipping    0.0000000000000000     
  no constraints, skipping    0.0000000000000000     
  no constraints, skipping    0.0000000000000000     
  no constraints, skipping    0.0000000000000000     
  no constraints, skipping    0.0000000000000000     
  no constraints, skipping    0.0000000000000000     
  no constraints, skipping    0.0000000000000000     

                                 NWChem DFT Module
                                 -----------------


                               Molecule conformer 0




 Summary of "ao basis" -> "ao basis" (spherical)
 ------------------------------------------------------------------------------
       Tag                 Description            Shells   Functions and Types
 ---------------- ------------------------------  ------  ---------------------
 C                           6-311G                  7       13   4s3p
 H                           6-311G                  3        3   3s


      Symmetry analysis of basis
      --------------------------

        a1         29
        a2          6
        b1         16
        b2         19

  Caching 1-el integrals 

            General Information
            -------------------
          SCF calculation type: DFT
          Wavefunction type:  closed shell.
          No. of atoms     :    10
          No. of electrons :    30
           Alpha electrons :    15
            Beta electrons :    15
          Charge           :     0
          Spin multiplicity:     1
          Use of symmetry is: on ; symmetry adaption is: on 
          Maximum number of iterations: ***
          This is a Direct SCF calculation.
          AO basis - number of functions:    70
                     number of shells:    46
          Convergence on energy requested:  1.00D-06
          Convergence on density requested:  1.00D-05
          Convergence on gradient requested:  5.00D-04

              XC Information
              --------------
                         B3LYP Method XC Potential
                     Hartree-Fock (Exact) Exchange  0.200          
                        Slater Exchange Functional  0.800 local    
                    Becke 1988 Exchange Functional  0.720 non-local
              Lee-Yang-Parr Correlation Functional  0.810          
                  VWN I RPA Correlation Functional  0.190 local    

             Grid Information
             ----------------
          Grid used for XC integration:  fine      
          Radial quadrature: Mura-Knowles        
          Angular quadrature: Lebedev. 
          Tag              B.-S. Rad. Rad. Pts. Rad. Cut. Ang. Pts.
          ---              ---------- --------- --------- ---------
          C                   0.70       70          10.0       590
          H                   0.35       60          11.0       590
          Grid pruning is: on 
          Number of quadrature shells:   320
          Spatial weights used:  Erf1

          Convergence Information
          -----------------------
          Convergence aids based upon iterative change in 
          total energy or number of iterations. 
          Levelshifting, if invoked, occurs when the 
          HOMO/LUMO gap drops below (HL_TOL):  1.00D-02
          DIIS, if invoked, will attempt to extrapolate 
          using up to (NFOCK): 10 stored Fock matrices.

                    Damping( 0%)  Levelshifting(0.5)       DIIS
                  --------------- ------------------- ---------------
          dE  on:    start            ASAP                start   
          dE off:    2 iters        *** iters           *** iters 


      Screening Tolerance Information
      -------------------------------
          Density screening/tol_rho:  1.00D-10
          AO Gaussian exp screening on grid/accAOfunc:  14
          CD Gaussian exp screening on grid/accCDfunc:  20
          XC Gaussian exp screening on grid/accXCfunc:  20
          Schwarz screening/accCoul:  1.00D-08

          Performing ZORA calculations
          ----------------------------


      Superposition of Atomic Density Guess
      -------------------------------------

 Sum of atomic energies:        -153.67306699

 Read atomic ZORA corrections from ./C1C2C1C2_mol_3_conformer_0.zora_sf

 Forcing recalculation of ZORA corrections
       Generating atomic ZORA corrections
       ----------------------------------

 In dft_scf:: zora:Knucl= F

 Grid_pts file          = ./C1C2C1C2_mol_3_conformer_0.gridpts.00
 Record size in doubles =  12289        No. of grid_pts per rec  =   3070
 Max. records in memory =      3        Max. recs in file   =     13578

 Grid integrated density:      29.999992864162
 Requested integration accuracy:   0.10E-06

 Wrote atomic ZORA corrections to ./C1C2C1C2_mol_3_conformer_0.zora_sf


 Loading old vectors from job with title :

Molecule conformer 0


      Symmetry analysis of molecular orbitals - initial
      -------------------------------------------------

  Numbering of irreducible representations: 

     1 a1          2 a2          3 b1          4 b2      

  Orbital symmetries:

     1 b2          2 a1          3 a1          4 b1          5 a1      
     6 b2          7 a1          8 b1          9 a1         10 b2      
    11 b2         12 a1         13 a2         14 b1         15 a1      
    16 a1         17 b1         18 a1         19 b2         20 b1      
    21 b2         22 a1         23 a2         24 b1         25 a1      

   Time after variat. SCF:     25.5
   Time prior to 1st pass:     25.5

           Memory utilization after 1st SCF pass: 
           Heap Space remaining (MW):      131.03           131029062
          Stack Space remaining (MW):      131.06           131061508

   convergence    iter        energy       DeltaE   RMS-Dens  Diis-err    time
 ---------------- ----- ----------------- --------- --------- ---------  ------
 d= 0,ls=0.0,diis     1   -155.9945664077 -2.71D+02  3.37D-03  2.05D-02    27.4
 d= 0,ls=0.0,diis     2   -155.9979030545 -3.34D-03  7.87D-04  1.96D-03    29.2
 d= 0,ls=0.0,diis     3   -155.9979794748 -7.64D-05  3.88D-04  1.51D-03    31.2
 d= 0,ls=0.0,diis     4   -155.9981713515 -1.92D-04  4.14D-05  6.99D-06    32.6
 d= 0,ls=0.0,diis     5   -155.9981718734 -5.22D-07  2.29D-05  2.70D-06    34.4
 d= 0,ls=0.0,diis     6   -155.9981722186 -3.45D-07  5.42D-06  3.95D-08    36.2
(nogshift,skip_gshiftAOev,done_Fji)=( 1,F,F)


         Total DFT energy =     -155.998172218573
      One electron energy =     -435.543799671660
           Coulomb energy =      188.455673992493
    Exchange-Corr. energy =      -23.946386312755
 Nuclear repulsion energy =      115.036339773348

       Scaling correction =        0.035077380389

 Numeric. integr. density =       29.999997213279

     Total iterative time =     10.8s



                  Occupations of the irreducible representations
                  ----------------------------------------------

                     irrep           alpha         beta
                     --------     --------     --------
                     a1                7.0          7.0
                     a2                1.0          1.0
                     b1                3.0          3.0
                     b2                4.0          4.0


 center of mass
 --------------
 x =   0.00000000 y =  -0.00000000 z =  -0.00505949

 moments of inertia (a.u.)
 ------------------
         202.549633828829           0.000000000000           0.000000000000
           0.000000000000          95.394246069674           0.000000000000
           0.000000000000           0.000000000000         235.874395280955
 Line search: 
     step= 1.00 grad=-2.6D-02 hess= 7.1D-03 energy=   -155.998172 mode=downhill
 new step= 1.87                   predicted energy=   -156.003457
  no constraints, skipping    0.0000000000000000     
  no constraints, skipping    0.0000000000000000     
  no constraints, skipping    0.0000000000000000     
  no constraints, skipping    0.0000000000000000     
  no constraints, skipping    0.0000000000000000     
  no constraints, skipping    0.0000000000000000     
  no constraints, skipping    0.0000000000000000     
  no constraints, skipping    0.0000000000000000     

          --------
          Step   1
          --------


                         Geometry "geometry" -> "geometry"
                         ---------------------------------

 Output coordinates in angstroms (scale by  1.889725989 to convert to a.u.)

  No.       Tag          Charge          X              Y              Z
 ---- ---------------- ---------- -------------- -------------- --------------
    1 C                    6.0000     0.00000000     1.18874521    -0.22572705
    2 C                    6.0000     0.82191709     0.00000000     0.21495268
    3 C                    6.0000    -0.82191709     0.00000000     0.21495268
    4 C                    6.0000     0.00000000    -1.18874521    -0.22572705
    5 H                    1.0000     0.00000000     1.41322337    -1.26152457
    6 H                    1.0000     0.00000000     1.98868990     0.45036837
    7 H                    1.0000     1.20709930     0.00000000     1.20478360
    8 H                    1.0000    -1.20709930     0.00000000     1.20478360
    9 H                    1.0000     0.00000000    -1.98868990     0.45036837
   10 H                    1.0000     0.00000000    -1.41322337    -1.26152457

      Atomic Mass 
      ----------- 

      C                 12.000000
      H                  1.007825


 Effective nuclear repulsion energy (a.u.)     115.4182192948

            Nuclear Dipole moment (a.u.) 
            ----------------------------
        X                 Y               Z
 ---------------- ---------------- ----------------
     0.0000000000     0.0000000000     1.2433684280

      Symmetry information
      --------------------

 Group name             C2v       
 Group number             16
 Group order               4
 No. of unique centers     5

      Symmetry unique atoms

     1    2    5    6    7


                                 NWChem DFT Module
                                 -----------------


                               Molecule conformer 0




 Summary of "ao basis" -> "ao basis" (spherical)
 ------------------------------------------------------------------------------
       Tag                 Description            Shells   Functions and Types
 ---------------- ------------------------------  ------  ---------------------
 C                           6-311G                  7       13   4s3p
 H                           6-311G                  3        3   3s


      Symmetry analysis of basis
      --------------------------

        a1         29
        a2          6
        b1         16
        b2         19

  Caching 1-el integrals 

            General Information
            -------------------
          SCF calculation type: DFT
          Wavefunction type:  closed shell.
          No. of atoms     :    10
          No. of electrons :    30
           Alpha electrons :    15
            Beta electrons :    15
          Charge           :     0
          Spin multiplicity:     1
          Use of symmetry is: on ; symmetry adaption is: on 
          Maximum number of iterations: ***
          This is a Direct SCF calculation.
          AO basis - number of functions:    70
                     number of shells:    46
          Convergence on energy requested:  1.00D-06
          Convergence on density requested:  1.00D-05
          Convergence on gradient requested:  5.00D-04

              XC Information
              --------------
                         B3LYP Method XC Potential
                     Hartree-Fock (Exact) Exchange  0.200          
                        Slater Exchange Functional  0.800 local    
                    Becke 1988 Exchange Functional  0.720 non-local
              Lee-Yang-Parr Correlation Functional  0.810          
                  VWN I RPA Correlation Functional  0.190 local    

             Grid Information
             ----------------
          Grid used for XC integration:  fine      
          Radial quadrature: Mura-Knowles        
          Angular quadrature: Lebedev. 
          Tag              B.-S. Rad. Rad. Pts. Rad. Cut. Ang. Pts.
          ---              ---------- --------- --------- ---------
          C                   0.70       70          10.0       590
          H                   0.35       60          11.0       590
          Grid pruning is: on 
          Number of quadrature shells:   320
          Spatial weights used:  Erf1

          Convergence Information
          -----------------------
          Convergence aids based upon iterative change in 
          total energy or number of iterations. 
          Levelshifting, if invoked, occurs when the 
          HOMO/LUMO gap drops below (HL_TOL):  1.00D-02
          DIIS, if invoked, will attempt to extrapolate 
          using up to (NFOCK): 10 stored Fock matrices.

                    Damping( 0%)  Levelshifting(0.5)       DIIS
                  --------------- ------------------- ---------------
          dE  on:    start            ASAP                start   
          dE off:    2 iters        *** iters           *** iters 


      Screening Tolerance Information
      -------------------------------
          Density screening/tol_rho:  1.00D-10
          AO Gaussian exp screening on grid/accAOfunc:  14
          CD Gaussian exp screening on grid/accCDfunc:  20
          XC Gaussian exp screening on grid/accXCfunc:  20
          Schwarz screening/accCoul:  1.00D-08

          Performing ZORA calculations
          ----------------------------


      Superposition of Atomic Density Guess
      -------------------------------------

 Sum of atomic energies:        -153.67306699

 Read atomic ZORA corrections from ./C1C2C1C2_mol_3_conformer_0.zora_sf

 Forcing recalculation of ZORA corrections
       Generating atomic ZORA corrections
       ----------------------------------

 In dft_scf:: zora:Knucl= F

 Grid_pts file          = ./C1C2C1C2_mol_3_conformer_0.gridpts.00
 Record size in doubles =  12289        No. of grid_pts per rec  =   3070
 Max. records in memory =      3        Max. recs in file   =     13578


 Wrote atomic ZORA corrections to ./C1C2C1C2_mol_3_conformer_0.zora_sf


 Loading old vectors from job with title :

Molecule conformer 0


      Symmetry analysis of molecular orbitals - initial
      -------------------------------------------------

  Numbering of irreducible representations: 

     1 a1          2 a2          3 b1          4 b2      

  Orbital symmetries:

     1 b2          2 a1          3 a1          4 b1          5 a1      
     6 b2          7 a1          8 b1          9 a1         10 b2      
    11 a1         12 b2         13 a2         14 b1         15 a1      
    16 b1         17 a1         18 a1         19 b2         20 b1      
    21 b2         22 a1         23 b1         24 a2         25 b2      

   Time after variat. SCF:     42.9
   Time prior to 1st pass:     42.9

           Memory utilization after 1st SCF pass: 
           Heap Space remaining (MW):      131.03           131029062
          Stack Space remaining (MW):      131.06           131061508

   convergence    iter        energy       DeltaE   RMS-Dens  Diis-err    time
 ---------------- ----- ----------------- --------- --------- ---------  ------
 d= 0,ls=0.0,diis     1   -156.0006033924 -2.71D+02  2.55D-03  1.49D-02    45.1
 d= 0,ls=0.0,diis     2   -156.0030744904 -2.47D-03  6.41D-04  1.30D-03    46.6
 d= 0,ls=0.0,diis     3   -156.0031276912 -5.32D-05  3.06D-04  9.84D-04    48.7
 d= 0,ls=0.0,diis     4   -156.0032525089 -1.25D-04  3.46D-05  4.58D-06    50.7
 d= 0,ls=0.0,diis     5   -156.0032528953 -3.86D-07  1.62D-05  1.47D-06    52.1
 d= 0,ls=0.0,diis     6   -156.0032530796 -1.84D-07  4.28D-06  3.34D-08    53.9
(nogshift,skip_gshiftAOev,done_Fji)=( 1,F,F)


         Total DFT energy =     -156.003253079552
      One electron energy =     -436.314752048498
           Coulomb energy =      188.889070150031
    Exchange-Corr. energy =      -23.995790475860
 Nuclear repulsion energy =      115.418219294775

       Scaling correction =        0.035057488567

 Numeric. integr. density =       30.000000844043

     Total iterative time =     11.1s



                  Occupations of the irreducible representations
                  ----------------------------------------------

                     irrep           alpha         beta
                     --------     --------     --------
                     a1                7.0          7.0
                     a2                1.0          1.0
                     b1                3.0          3.0
                     b2                4.0          4.0


 center of mass
 --------------
 x =   0.00000000 y =  -0.00000000 z =   0.01870008

 moments of inertia (a.u.)
 ------------------
         195.626221298312           0.000000000000           0.000000000000
           0.000000000000         100.057526072210           0.000000000000
           0.000000000000           0.000000000000         232.341356001776

            General Information
            -------------------
          SCF calculation type: DFT
          Wavefunction type:  closed shell.
          No. of atoms     :    10
          No. of electrons :    30
           Alpha electrons :    15
            Beta electrons :    15
          Charge           :     0
          Spin multiplicity:     1
          Use of symmetry is: on ; symmetry adaption is: on 
          Maximum number of iterations: ***
          This is a Direct SCF calculation.
          AO basis - number of functions:    70
                     number of shells:    46
          Convergence on energy requested:  1.00D-06
          Convergence on density requested:  1.00D-05
          Convergence on gradient requested:  5.00D-04

              XC Information
              --------------
                         B3LYP Method XC Potential
                     Hartree-Fock (Exact) Exchange  0.200          
                        Slater Exchange Functional  0.800 local    
                    Becke 1988 Exchange Functional  0.720 non-local
              Lee-Yang-Parr Correlation Functional  0.810          
                  VWN I RPA Correlation Functional  0.190 local    

             Grid Information
             ----------------
          Grid used for XC integration:  fine      
          Radial quadrature: Mura-Knowles        
          Angular quadrature: Lebedev. 
          Tag              B.-S. Rad. Rad. Pts. Rad. Cut. Ang. Pts.
          ---              ---------- --------- --------- ---------
          C                   0.70       70          10.0       590
          H                   0.35       60          11.0       590
          Grid pruning is: on 
          Number of quadrature shells:   320
          Spatial weights used:  Erf1

          Convergence Information
          -----------------------
          Convergence aids based upon iterative change in 
          total energy or number of iterations. 
          Levelshifting, if invoked, occurs when the 
          HOMO/LUMO gap drops below (HL_TOL):  1.00D-02
          DIIS, if invoked, will attempt to extrapolate 
          using up to (NFOCK): 10 stored Fock matrices.

                    Damping( 0%)  Levelshifting(0.5)       DIIS
                  --------------- ------------------- ---------------
          dE  on:    start            ASAP                start   
          dE off:    2 iters        *** iters           *** iters 


      Screening Tolerance Information
      -------------------------------
          Density screening/tol_rho:  1.00D-10
          AO Gaussian exp screening on grid/accAOfunc:  14
          CD Gaussian exp screening on grid/accCDfunc:  20
          XC Gaussian exp screening on grid/accXCfunc:  20
          Schwarz screening/accCoul:  1.00D-08



                            NWChem DFT Gradient Module
                            --------------------------


                               Molecule conformer 0



  charge          =   0.00
  wavefunction    = closed shell

  Using symmetry


                         DFT ENERGY GRADIENTS

    atom               coordinates                        gradient
                 x          y          z           x          y          z
   1 C       0.000000   2.246403  -0.426562    0.000000   0.038504   0.015704
   2 C       1.553198   0.000000   0.406202    0.012948   0.000000  -0.010015
   3 C      -1.553198   0.000000   0.406202   -0.012948  -0.000000  -0.010015
   4 C       0.000000  -2.246403  -0.426562   -0.000000  -0.038504   0.015704
   5 H       0.000000   2.670605  -2.383936    0.000000  -0.009649   0.015182
   6 H       0.000000   3.758079   0.851073    0.000000  -0.024655  -0.010377
   7 H       2.281087   0.000000   2.276711   -0.010985   0.000000  -0.010495
   8 H      -2.281087   0.000000   2.276711    0.010985   0.000000  -0.010495
   9 H       0.000000  -3.758079   0.851073   -0.000000   0.024655  -0.010377
  10 H       0.000000  -2.670605  -2.383936   -0.000000   0.009649   0.015182

                 ----------------------------------------
                 |  Time  |  1-e(secs)   |  2-e(secs)   |
                 ----------------------------------------
                 |  CPU   |       0.00   |       0.03   |
                 ----------------------------------------
                 |  WALL  |       0.00   |       0.03   |
                 ----------------------------------------
  no constraints, skipping    0.0000000000000000     

  Step       Energy      Delta E   Gmax     Grms     Xrms     Xmax   Walltime
  ---- ---------------- -------- -------- -------- -------- -------- --------
@    1    -156.00325308 -2.4D-02  0.02553  0.00568  0.10091  0.21822     55.5
                                                                    



                                Z-matrix (autoz)
                                -------- 

 Units are Angstrom for bonds and degrees for angles

      Type          Name      I     J     K     L     M      Value     Gradient
      ----------- --------  ----- ----- ----- ----- ----- ---------- ----------
    1 Stretch                  1     2                       1.51091   -0.00067
    2 Stretch                  1     3                       1.51091   -0.00067
    3 Stretch                  1     5                       1.05984   -0.01688
    4 Stretch                  1     6                       1.04739   -0.02553
    5 Stretch                  2     3                       1.64383   -0.00049
    6 Stretch                  2     4                       1.51091   -0.00067
    7 Stretch                  2     7                       1.06213   -0.01376
    8 Stretch                  3     4                       1.51091   -0.00067
    9 Stretch                  3     8                       1.06213   -0.01376
   10 Stretch                  4     9                       1.04739   -0.02553
   11 Stretch                  4    10                       1.05984   -0.01688
   12 Bend                     1     2     3                57.04456   -0.00009
   13 Bend                     1     2     4               103.76976    0.00122
   14 Bend                     1     2     7               117.97497   -0.00173
   15 Bend                     1     3     2                57.04456   -0.00009
   16 Bend                     1     3     4               103.76976    0.00122
   17 Bend                     1     3     8               117.97497   -0.00173
   18 Bend                     2     1     3                65.91088    0.00019
   19 Bend                     2     1     5               116.85204   -0.00127
   20 Bend                     2     1     6               114.37007   -0.00082
   21 Bend                     2     3     4                57.04456   -0.00009
   22 Bend                     2     3     8               111.26297   -0.00117
   23 Bend                     2     4     3                65.91088    0.00019
   24 Bend                     2     4     9               114.37007   -0.00082
   25 Bend                     2     4    10               116.85204   -0.00127
   26 Bend                     3     1     5               116.85204   -0.00127
   27 Bend                     3     1     6               114.37007   -0.00082
   28 Bend                     3     2     4                57.04456   -0.00009
   29 Bend                     3     2     7               111.26297   -0.00117
   30 Bend                     3     4     9               114.37007   -0.00082
   31 Bend                     3     4    10               116.85204   -0.00127
   32 Bend                     4     2     7               117.97497   -0.00173
   33 Bend                     4     3     8               117.97497   -0.00173
   34 Bend                     5     1     6               117.97570    0.00256
   35 Bend                     9     4    10               117.97570    0.00256
   36 Torsion                  1     2     3     4         139.31951    0.00291
   37 Torsion                  1     2     3     8        -110.34025    0.00146
   38 Torsion                  1     2     4     3         -34.27321    0.00215
   39 Torsion                  1     2     4     9        -141.35131    0.00275
   40 Torsion                  1     2     4    10          74.88759    0.00112
   41 Torsion                  1     3     2     4        -139.31951   -0.00291
   42 Torsion                  1     3     2     7         110.34025   -0.00146
   43 Torsion                  1     3     4     2          34.27321   -0.00215
   44 Torsion                  1     3     4     9         141.35131   -0.00275
   45 Torsion                  1     3     4    10         -74.88759   -0.00112
   46 Torsion                  2     1     3     4         -34.27321    0.00215
   47 Torsion                  2     1     3     8          98.33890   -0.00053
   48 Torsion                  2     3     1     5         109.16080   -0.00103
   49 Torsion                  2     3     1     6        -107.07809    0.00061
   50 Torsion                  2     3     4     9         107.07809   -0.00061
   51 Torsion                  2     3     4    10        -109.16080    0.00103
   52 Torsion                  2     4     3     8         -98.33890    0.00053
   53 Torsion                  3     1     2     4          34.27321   -0.00215
   54 Torsion                  3     1     2     7         -98.33890    0.00053
   55 Torsion                  3     2     1     5        -109.16080    0.00103
   56 Torsion                  3     2     1     6         107.07809   -0.00061
   57 Torsion                  3     2     4     9        -107.07809    0.00061
   58 Torsion                  3     2     4    10         109.16080   -0.00103
   59 Torsion                  3     4     2     7          98.33890   -0.00053
   60 Torsion                  4     2     1     5         -74.88759   -0.00112
   61 Torsion                  4     2     1     6         141.35131   -0.00275
   62 Torsion                  4     2     3     8         110.34025   -0.00146
   63 Torsion                  4     3     1     5          74.88759    0.00112
   64 Torsion                  4     3     1     6        -141.35131    0.00275
   65 Torsion                  4     3     2     7        -110.34025    0.00146
   66 Torsion                  5     1     2     7         152.50030    0.00156
   67 Torsion                  5     1     3     8        -152.50030   -0.00156
   68 Torsion                  6     1     2     7           8.73919   -0.00007
   69 Torsion                  6     1     3     8          -8.73919    0.00007
   70 Torsion                  7     2     3     8           0.00000    0.00000
   71 Torsion                  7     2     4     9          -8.73919    0.00007
   72 Torsion                  7     2     4    10        -152.50030   -0.00156
   73 Torsion                  8     3     4     9           8.73919   -0.00007
   74 Torsion                  8     3     4    10         152.50030    0.00156

 Restricting large step in mode    1 eval= 2.0D-02 step=-4.7D-01 new=-3.0D-01
  no constraints, skipping    0.0000000000000000     
  no constraints, skipping    0.0000000000000000     
  no constraints, skipping    0.0000000000000000     
  no constraints, skipping    0.0000000000000000     
  no constraints, skipping    0.0000000000000000     
  no constraints, skipping    0.0000000000000000     
  no constraints, skipping    0.0000000000000000     
  no constraints, skipping    0.0000000000000000     

                                 NWChem DFT Module
                                 -----------------


                               Molecule conformer 0




 Summary of "ao basis" -> "ao basis" (spherical)
 ------------------------------------------------------------------------------
       Tag                 Description            Shells   Functions and Types
 ---------------- ------------------------------  ------  ---------------------
 C                           6-311G                  7       13   4s3p
 H                           6-311G                  3        3   3s


      Symmetry analysis of basis
      --------------------------

        a1         29
        a2          6
        b1         16
        b2         19

  Caching 1-el integrals 

            General Information
            -------------------
          SCF calculation type: DFT
          Wavefunction type:  closed shell.
          No. of atoms     :    10
          No. of electrons :    30
           Alpha electrons :    15
            Beta electrons :    15
          Charge           :     0
          Spin multiplicity:     1
          Use of symmetry is: on ; symmetry adaption is: on 
          Maximum number of iterations: ***
          This is a Direct SCF calculation.
          AO basis - number of functions:    70
                     number of shells:    46
          Convergence on energy requested:  1.00D-06
          Convergence on density requested:  1.00D-05
          Convergence on gradient requested:  5.00D-04

              XC Information
              --------------
                         B3LYP Method XC Potential
                     Hartree-Fock (Exact) Exchange  0.200          
                        Slater Exchange Functional  0.800 local    
                    Becke 1988 Exchange Functional  0.720 non-local
              Lee-Yang-Parr Correlation Functional  0.810          
                  VWN I RPA Correlation Functional  0.190 local    

             Grid Information
             ----------------
          Grid used for XC integration:  fine      
          Radial quadrature: Mura-Knowles        
          Angular quadrature: Lebedev. 
          Tag              B.-S. Rad. Rad. Pts. Rad. Cut. Ang. Pts.
          ---              ---------- --------- --------- ---------
          C                   0.70       70          10.0       590
          H                   0.35       60          11.0       590
          Grid pruning is: on 
          Number of quadrature shells:   320
          Spatial weights used:  Erf1

          Convergence Information
          -----------------------
          Convergence aids based upon iterative change in 
          total energy or number of iterations. 
          Levelshifting, if invoked, occurs when the 
          HOMO/LUMO gap drops below (HL_TOL):  1.00D-02
          DIIS, if invoked, will attempt to extrapolate 
          using up to (NFOCK): 10 stored Fock matrices.

                    Damping( 0%)  Levelshifting(0.5)       DIIS
                  --------------- ------------------- ---------------
          dE  on:    start            ASAP                start   
          dE off:    2 iters        *** iters           *** iters 


      Screening Tolerance Information
      -------------------------------
          Density screening/tol_rho:  1.00D-10
          AO Gaussian exp screening on grid/accAOfunc:  14
          CD Gaussian exp screening on grid/accCDfunc:  20
          XC Gaussian exp screening on grid/accXCfunc:  20
          Schwarz screening/accCoul:  1.00D-08

          Performing ZORA calculations
          ----------------------------


      Superposition of Atomic Density Guess
      -------------------------------------

 Sum of atomic energies:        -153.67306699

 Read atomic ZORA corrections from ./C1C2C1C2_mol_3_conformer_0.zora_sf

 Forcing recalculation of ZORA corrections
       Generating atomic ZORA corrections
       ----------------------------------

 In dft_scf:: zora:Knucl= F

 Grid_pts file          = ./C1C2C1C2_mol_3_conformer_0.gridpts.00
 Record size in doubles =  12289        No. of grid_pts per rec  =   3070
 Max. records in memory =      3        Max. recs in file   =     13578


 Wrote atomic ZORA corrections to ./C1C2C1C2_mol_3_conformer_0.zora_sf


 Loading old vectors from job with title :

Molecule conformer 0


      Symmetry analysis of molecular orbitals - initial
      -------------------------------------------------

  Numbering of irreducible representations: 

     1 a1          2 a2          3 b1          4 b2      

  Orbital symmetries:

     1 a1          2 b1          3 b2          4 a1          5 a1      
     6 b2          7 b1          8 a1          9 a1         10 b2      
    11 a1         12 b2         13 a2         14 b1         15 a1      
    16 b1         17 a1         18 a1         19 b2         20 b1      
    21 b2         22 a1         23 b1         24 a2         25 b2      

   Time after variat. SCF:     62.5
   Time prior to 1st pass:     62.5

           Memory utilization after 1st SCF pass: 
           Heap Space remaining (MW):      131.03           131029062
          Stack Space remaining (MW):      131.06           131061508

   convergence    iter        energy       DeltaE   RMS-Dens  Diis-err    time
 ---------------- ----- ----------------- --------- --------- ---------  ------
 d= 0,ls=0.0,diis     1   -156.0080476703 -2.71D+02  1.93D-03  7.03D-03    64.2
 d= 0,ls=0.0,diis     2   -156.0089759708 -9.28D-04  7.34D-04  1.52D-03    65.9
 d= 0,ls=0.0,diis     3   -156.0090849588 -1.09D-04  2.32D-04  7.29D-04    67.7
 d= 0,ls=0.0,diis     4   -156.0091736197 -8.87D-05  5.03D-05  3.93D-06    69.5
 d= 0,ls=0.0,diis     5   -156.0091740572 -4.37D-07  1.56D-05  9.70D-07    71.3
 d= 0,ls=0.0,diis     6   -156.0091741825 -1.25D-07  6.39D-06  1.96D-08    73.1
(nogshift,skip_gshiftAOev,done_Fji)=( 1,F,F)


         Total DFT energy =     -156.009174182472
      One electron energy =     -434.966368625902
           Coulomb energy =      188.195764551853
    Exchange-Corr. energy =      -23.941880469481
 Nuclear repulsion energy =      114.703310361058

       Scaling correction =        0.035068234167

 Numeric. integr. density =       29.999999063712

     Total iterative time =     10.7s



                  Occupations of the irreducible representations
                  ----------------------------------------------

                     irrep           alpha         beta
                     --------     --------     --------
                     a1                7.0          7.0
                     a2                1.0          1.0
                     b1                3.0          3.0
                     b2                4.0          4.0


 center of mass
 --------------
 x =   0.00000000 y =   0.00000000 z =   0.02900673

 moments of inertia (a.u.)
 ------------------
         196.075650737641           0.000000000000           0.000000000000
           0.000000000000         102.969014314185           0.000000000000
           0.000000000000           0.000000000000         232.067492653136
 Line search: 
     step= 1.00 grad=-8.6D-03 hess= 2.7D-03 energy=   -156.009174 mode=downhill
 new step= 1.62                   predicted energy=   -156.010184
  no constraints, skipping    0.0000000000000000     
  no constraints, skipping    0.0000000000000000     
  no constraints, skipping    0.0000000000000000     
  no constraints, skipping    0.0000000000000000     
  no constraints, skipping    0.0000000000000000     
  no constraints, skipping    0.0000000000000000     
  no constraints, skipping    0.0000000000000000     
  no constraints, skipping    0.0000000000000000     

          --------
          Step   2
          --------


                         Geometry "geometry" -> "geometry"
                         ---------------------------------

 Output coordinates in angstroms (scale by  1.889725989 to convert to a.u.)

  No.       Tag          Charge          X              Y              Z
 ---- ---------------- ---------- -------------- -------------- --------------
    1 C                    6.0000     0.00000000     1.17094999    -0.23590507
    2 C                    6.0000     0.82849282     0.00000000     0.24748557
    3 C                    6.0000    -0.82849282     0.00000000     0.24748557
    4 C                    6.0000     0.00000000    -1.17094999    -0.23590507
    5 H                    1.0000     0.00000000     1.40074049    -1.30208033
    6 H                    1.0000     0.00000000     2.04410054     0.42682648
    7 H                    1.0000     1.25370707     0.00000000     1.24652637
    8 H                    1.0000    -1.25370707     0.00000000     1.24652637
    9 H                    1.0000     0.00000000    -2.04410054     0.42682648
   10 H                    1.0000     0.00000000    -1.40074049    -1.30208033

      Atomic Mass 
      ----------- 

      C                 12.000000
      H                  1.007825


 Effective nuclear repulsion energy (a.u.)     114.2765665472

            Nuclear Dipole moment (a.u.) 
            ----------------------------
        X                 Y               Z
 ---------------- ---------------- ----------------
     0.0000000000     0.0000000000     1.6658144998

      Symmetry information
[...]
(dia2,par1)(k,t,iat1,spin)=(  2,  2,  9,  1)=(     0.04364259,     0.04364259,     0.23839734,     0.23839734) ppm
(dia2,par1)(k,t,iat1,spin)=(  3,  2,  9,  1)=(     2.66453306,     2.66453306,    -0.07215930,    -0.07215930) ppm
(dia2,par1)(k,t,iat1,spin)=(  1,  3,  9,  1)=(    -0.00155154,    -0.00155154,     0.00135771,     0.00135771) ppm
(dia2,par1)(k,t,iat1,spin)=(  2,  3,  9,  1)=(     3.50309702,     3.50309702,    -0.44610459,    -0.44610459) ppm
(dia2,par1)(k,t,iat1,spin)=(  3,  3,  9,  1)=(     5.09684810,     5.09684810,    -3.43705429,    -3.43705429) ppm
 Grid integrated density:      30.000003893260
 Requested integration accuracy:   0.10E-06
dia1(k,t,iat1,ispin)=(  1,  1, 10,  1)=(    17.56277473,    17.56277473) ppm
dia1(k,t,iat1,ispin)=(  1,  2, 10,  1)=(     0.00183464,     0.00183464) ppm
dia1(k,t,iat1,ispin)=(  1,  3, 10,  1)=(     0.00195251,     0.00195251) ppm
dia1(k,t,iat1,ispin)=(  2,  1, 10,  1)=(     0.00208355,     0.00208355) ppm
dia1(k,t,iat1,ispin)=(  2,  2, 10,  1)=(    21.10737706,    21.10737706) ppm
dia1(k,t,iat1,ispin)=(  2,  3, 10,  1)=(     5.66524820,     5.66524820) ppm
dia1(k,t,iat1,ispin)=(  3,  1, 10,  1)=(     0.00198821,     0.00198821) ppm
dia1(k,t,iat1,ispin)=(  3,  2, 10,  1)=(     4.96445536,     4.96445536) ppm
dia1(k,t,iat1,ispin)=(  3,  3, 10,  1)=(    40.23733382,    40.23733382) ppm
(dia2,par1)(k,t,iat1,spin)=(  1,  1, 10,  1)=(     5.34774437,     5.34774437,    -1.06321261,    -1.06321261) ppm
(dia2,par1)(k,t,iat1,spin)=(  2,  1, 10,  1)=(     0.00126458,     0.00126458,    -0.00026355,    -0.00026355) ppm
(dia2,par1)(k,t,iat1,spin)=(  3,  1, 10,  1)=(    -0.00027931,    -0.00027931,    -0.00421793,    -0.00421793) ppm
(dia2,par1)(k,t,iat1,spin)=(  1,  2, 10,  1)=(     0.00039675,     0.00039675,    -0.00096864,    -0.00096864) ppm
(dia2,par1)(k,t,iat1,spin)=(  2,  2, 10,  1)=(     6.37436126,     6.37436126,     1.14705669,     1.14705669) ppm
(dia2,par1)(k,t,iat1,spin)=(  3,  2, 10,  1)=(    -0.73555879,    -0.73555879,     2.30634188,     2.30634188) ppm
(dia2,par1)(k,t,iat1,spin)=(  1,  3, 10,  1)=(     0.00131269,     0.00131269,     0.00027303,     0.00027303) ppm
(dia2,par1)(k,t,iat1,spin)=(  2,  3, 10,  1)=(    -2.25473925,    -2.25473925,    -0.47423834,    -0.47423834) ppm
(dia2,par1)(k,t,iat1,spin)=(  3,  3, 10,  1)=(    -0.79242728,    -0.79242728,    -2.70464791,    -2.70464791) ppm
 Grid integrated density:      30.000003893260
 Requested integration accuracy:   0.10E-06

 Wrote ZORA NMR data to ./C1C2C1C2_mol_3_conformer_0.zora_nmrcs

(nogshift,skip_gshiftAOev,done_Fji)=( 1,F,T)


         Total DFT energy =     -156.022697177868
      One electron energy =     -437.067739437791
           Coulomb energy =      189.278164063561
    Exchange-Corr. energy =      -23.962454926727
 Nuclear repulsion energy =      115.629835619376

             COSMO energy =        0.099497503714

       Scaling correction =        0.035135809263

 Numeric. integr. density =       30.000001527270

     Total iterative time =     53.3s


                                   COSMO solvation results
                                   -----------------------

                 gas phase energy =      -156.020167235163
                 sol phase energy =      -156.022697177868
 (electrostatic) solvation energy =         0.002529942706 (    1.59 kcal/mol)

 center of mass
 --------------
 x =   0.00000000 y =   0.00000000 z =   0.16241550

 moments of inertia (a.u.)
 ------------------
         195.730705068214           0.000000000000           0.000000000000
           0.000000000000         105.241413070406           0.000000000000
           0.000000000000           0.000000000000         218.542097379289

            Scalar ZORA NMR Shielding
            -------------------------


          -----------------------------------------
          Chemical Shielding Tensors (GIAO, in ppm)
          -----------------------------------------


 Read ZORA NMR data from ./C1C2C1C2_mol_3_conformer_0.zora_nmrcs

    0 giaofock schwarz done =      88.21%
    0 giaofock schwarz done =      97.57%
                                NWChem CPHF Module
                                ------------------



 solvent parameters
 solvname_short: cdcl3   
 solvname_long:  unknown                            
 dielec:       78.4000
 dielecinf:     1.7769

          ---------------
          -cosmo- solvent
          ---------------
 Cosmo: York-Karplus, doi: 10.1021/jp992097l
 dielectric constant -eps-     =  78.40
 screen = (eps-1)/(eps    )    =   0.98724
 surface charge correction     = lagrangian
 -lineq- algorithm             =   0
 -bem- low  level              =   2
 -bem- from -octahedral-
 gaussian surface charge width =   0.98000
 degree of switching           =   1.00000
 switching function tolerance  =   0.00010
 atomic radii = 
 --------------
    1  6.000  2.000
    2  6.000  2.000
    3  6.000  2.000
    4  6.000  2.000
    5  1.000  1.300
    6  1.000  1.300
    7  1.000  1.300
    8  1.000  1.300
    9  1.000  1.300
   10  1.000  1.300

 solvent accessible surface
 --------------------------

 ---------- ATOMIC COORDINATES (A.U.) ------------ VDWR(ANG.) --
     1    0.00000000    2.16055915   -0.43694154     2.000
     2    1.42632945    0.00000000    0.76989499     2.000
     3   -1.42632945    0.00000000    0.76989499     2.000
     4    0.00000000   -2.16055915   -0.43694154     2.000
     5    0.00000000    2.34258387   -2.48245630     1.300
     6    0.00000000    3.94829490    0.56061566     1.300
     7    2.74612510    0.00000000    2.31237450     1.300
     8   -2.74612510    0.00000000    2.31237450     1.300
     9    0.00000000   -3.94829490    0.56061566     1.300
    10    0.00000000   -2.34258387   -2.48245630     1.300
 number of segments per atom =         32
 number of   points per atom =         32
 atom (   nspa,  nppa )
 ----------------------
    1 (     14,     0 )       0
    2 (     16,     0 )       0
    3 (     16,     0 )       0
    4 (     14,     0 )       0
    5 (     16,     0 )       0
    6 (     16,     0 )       0
    7 (     12,     0 )       0
    8 (     12,     0 )       0
    9 (     16,     0 )       0
   10 (     16,     0 )       0
 number of -cosmo- surface points =      148
 molecular surface =     90.016 angstrom**2
 molecular volume  =     51.554 angstrom**3
 G(cav/disp)       =      1.310 kcal/mol
 ...... end of -cosmo- initialization ......


  scftype          =     RHF 
  nclosed          =       15
  nopen            =        0
  variables        =      825
  # of vectors     =        3
  tolerance        = 0.10D-03
  level shift      = 0.00D+00
  max iterations   =       50
  max subspace     =       30

 SCF residual:    1.4159878210793700E-004


Iterative solution of linear equations
  No. of variables      825
  No. of equations        3
  Maximum subspace       30
        Iterations       50
       Convergence  1.0D-04
        Start time    902.3


   iter   nsub   residual    time
   ----  ------  --------  ---------
     1      3    4.48D-01     904.2
     2      6    7.68D-03     906.2
     3      9    5.03D-04     908.3
     4     12    2.81D-05     910.3

 Wrote CPHF data to ./C1C2C1C2_mol_3_conformer_0.shieldcphf

 Calc. par tensor-> zora
      Atom:    1  H 
        Diamagnetic
     22.9269     -0.0024      0.0022
     -0.0024     27.4920     -3.8175
      0.0022     -3.8175     39.4603

        Paramagnetic
      3.9512      0.0029     -0.0018
      0.0029      3.1395      0.2869
     -0.0018      0.2869     -0.8747

        Total Shielding Tensor
     26.8781      0.0006      0.0004
      0.0006     30.6315     -3.5307
      0.0004     -3.5307     38.5855

           isotropic =      32.0317
          anisotropy =      11.8424

          Principal Components and Axis System
                 1           2           3
               39.9266     29.2904     26.8781

      1         0.0000      0.0003      1.0000
      2        -0.3551      0.9348     -0.0003
      3         0.9348      0.3551     -0.0001



      Atom:    2  H 
        Diamagnetic
     24.1425     -0.0038      0.0001
     -0.0038     39.1559      5.0652
      0.0001      5.0652     26.9554

        Paramagnetic
      2.4095      0.0042     -0.0001
      0.0042      1.1913     -2.4642
     -0.0001     -2.4642      0.4969

        Total Shielding Tensor
     26.5519      0.0004      0.0000
      0.0004     40.3472      2.6010
      0.0000      2.6010     27.4523

           isotropic =      31.4505
          anisotropy =      14.1024

          Principal Components and Axis System
                 1           2           3
               40.8521     26.9474     26.5519

      1         0.0000     -0.0001      1.0000
      2         0.9817     -0.1906     -0.0000
      3         0.1906      0.9817      0.0001



      Atom:    3  H 
        Diamagnetic
     30.8979     -0.0016      8.2031
     -0.0016     24.3405     -0.0021
      8.2031     -0.0021     32.3589

        Paramagnetic
     -0.1286      0.0008     -1.5279
      0.0008      4.0258      0.0010
     -1.5279      0.0010      2.8438

        Total Shielding Tensor
     30.7693     -0.0009      6.6752
     -0.0009     28.3663     -0.0011
      6.6752     -0.0011     35.2026

           isotropic =      31.4461
          anisotropy =      12.8603

          Principal Components and Axis System
                 1           2           3
               40.0196     28.3663     25.9523

      1         0.5852      0.0000      0.8109
      2        -0.0001      1.0000      0.0000
      3         0.8109      0.0001     -0.5852



      Atom:    4  H 
        Diamagnetic
     30.8753      0.0020     -8.2061
      0.0020     24.3145     -0.0023
     -8.2061     -0.0023     32.3378

        Paramagnetic
     -0.1224     -0.0006      1.5274
     -0.0006      4.0427      0.0013
      1.5274      0.0013      2.8381

        Total Shielding Tensor
     30.7529      0.0014     -6.6787
      0.0014     28.3573     -0.0010
     -6.6787     -0.0010     35.1758

           isotropic =      31.4287
          anisotropy =      12.8566

          Principal Components and Axis System
                 1           2           3
               39.9997     28.3573     25.9290

      1        -0.5855      0.0001      0.8107
      2        -0.0001      1.0000     -0.0002
      3         0.8107      0.0003      0.5855



      Atom:    5  H 
        Diamagnetic
     24.1291      0.0040      0.0006
      0.0040     39.1463     -5.0642
      0.0006     -5.0642     26.9419

        Paramagnetic
      2.4044     -0.0042      0.0007
     -0.0042      1.1915      2.4642
      0.0007      2.4642      0.4964

        Total Shielding Tensor
     26.5335     -0.0002      0.0013
     -0.0002     40.3378     -2.5999
      0.0013     -2.5999     27.4383

           isotropic =      31.4365
          anisotropy =      14.1084

          Principal Components and Axis System
                 1           2           3
               40.8421     26.9340     26.5335

      1        -0.0000      0.0032      1.0000
      2         0.9817      0.1904     -0.0006
      3        -0.1904      0.9817     -0.0031



      Atom:    6  H 
        Diamagnetic
     22.9105      0.0028      0.0025
      0.0028     27.4817      3.8197
      0.0025      3.8197     39.4449

        Paramagnetic
      3.9515     -0.0012     -0.0015
     -0.0012      3.1413     -0.2880
     -0.0015     -0.2880     -0.8749

        Total Shielding Tensor
     26.8620      0.0015      0.0010
      0.0015     30.6231      3.5317
      0.0010      3.5317     38.5700

           isotropic =      32.0184
          anisotropy =      11.8415

          Principal Components and Axis System
                 1           2           3
               39.9127     29.2804     26.8620

      1         0.0001      0.0004      1.0000
      2         0.3554      0.9347     -0.0005
      3         0.9347     -0.3554      0.0001




 Task  times  cpu:       76.8s     wall:       72.9s


                                NWChem Input Module
                                -------------------


 Summary of allocated global arrays
-----------------------------------
  array 0 => double precision sf 1(70,70),  handle: -987 
  array 1 => double precision sf 1(70,70),  handle: -986 
  array 2 => double precision sf 1(70,70),  handle: -985 
  array 3 => double precision sf 1(70,70),  handle: -984 
  array 4 => double precision sf 1(70,70),  handle: -983 
  array 5 => double precision sf 1(70,70),  handle: -982 
  array 6 => double precision sf 1(70,70),  handle: -981 
  array 7 => double precision sf 1(70,70),  handle: -980 
  array 8 => double precision sf 1(70,70),  handle: -979 
  array 9 => double precision sf 1(70,70),  handle: -978 
  array 10 => double precision sf 1(70,70),  handle: -977 
  array 11 => double precision sf 1(70,70),  handle: -976 
  array 12 => double precision sf 1(70,70),  handle: -975 
  array 13 => double precision sf 1(70,70),  handle: -974 
  array 14 => double precision sf 1(70,70),  handle: -973 
  array 15 => double precision sf 1(70,70),  handle: -972 
  array 16 => double precision sf 1(70,70),  handle: -971 
  array 17 => double precision sf 1(70,70),  handle: -970 
  array 18 => double precision sf 1(70,70),  handle: -969 
  array 19 => double precision sf 1(70,70),  handle: -968 
  array 20 => double precision sf 1(70,70),  handle: -967 
  array 21 => double precision sf 1(70,70),  handle: -966 
  array 22 => double precision sf 1(70,70),  handle: -965 
  array 23 => double precision sf 1(70,70),  handle: -964 
  array 24 => double precision sf 1(70,70),  handle: -963 
  array 25 => double precision sf 1(70,70),  handle: -962 
  array 26 => double precision sf 1(70,70),  handle: -961 
  array 27 => double precision sf 1(70,70),  handle: -960 
  array 28 => double precision sf 1(70,70),  handle: -959 
  array 29 => double precision sf 1(70,70),  handle: -958 
  array 30 => double precision sf 1(70,70),  handle: -957 
  array 31 => double precision sf 1(70,70),  handle: -956 
  array 32 => double precision sf 1(70,70),  handle: -955 
  array 33 => double precision sf 1(70,70),  handle: -954 
  array 34 => double precision sf 1(70,70),  handle: -953 
  array 35 => double precision sf 1(70,70),  handle: -952 
  array 36 => double precision sf 1(70,70),  handle: -951 
  array 37 => double precision sf 1(70,70),  handle: -950 
  array 38 => double precision sf 1(70,70),  handle: -949 
  array 39 => double precision sf 1(70,70),  handle: -948 
  array 40 => double precision sf 1(70,70),  handle: -947 
  array 41 => double precision sf 1(70,70),  handle: -946 
  array 42 => double precision sf 1(70,70),  handle: -945 
  array 43 => double precision sf 1(70,70),  handle: -944 
  array 44 => double precision sf 1(70,70),  handle: -943 
  array 45 => double precision sf 1(70,70),  handle: -942 
  array 46 => double precision sf 1(70,70),  handle: -941 
  array 47 => double precision sf 1(70,70),  handle: -940 
  array 48 => double precision sf 1(70,70),  handle: -939 
  array 49 => double precision sf 1(70,70),  handle: -938 
  array 50 => double precision sf 1(70,70),  handle: -937 



                         GA Statistics for process    0
                         ------------------------------

       create   destroy   get      put      acc     scatter   gather  read&inc
calls: 9188     8822     2.22e+05 5.41e+04 7.13e+04   60        0     6504     
number of processes/call 0.00e+00 0.00e+00 0.00e+00 0.00e+00 0.00e+00
bytes total:             3.55e+08 5.51e+07 2.82e+08 3.36e+02 0.00e+00 5.20e+04
bytes remote:            3.15e+08 4.52e+07 2.60e+08 -1.68e+02 0.00e+00 0.00e+00
Max memory consumed for GA by this process: 580576 bytes

MA_summarize_allocated_blocks: starting scan ...
MA_summarize_allocated_blocks: scan completed: 0 heap blocks, 0 stack blocks
MA usage statistics:

	allocation statistics:
					      heap	     stack
					      ----	     -----
	current number of blocks	         0	         0
	maximum number of blocks	        66	        59
	current total bytes		         0	         0
	maximum total bytes		   2004840	  27319096
	maximum total K-bytes		      2005	     27320
	maximum total M-bytes		         3	        28


                                     CITATION
                                     --------
                Please cite the following reference when publishing
                           results obtained with NWChem:

          E. Apr, E. J. Bylaska, W. A. de Jong, N. Govind, K. Kowalski,
       T. P. Straatsma, M. Valiev, H. J. J. van Dam, Y. Alexeev, J. Anchell,
       V. Anisimov, F. W. Aquino, R. Atta-Fynn, J. Autschbach, N. P. Bauman,
     J. C. Becca, D. E. Bernholdt, K. Bhaskaran-Nair, S. Bogatko, P. Borowski,
        J. Boschen, J. Brabec, A. Bruner, E. Caut, Y. Chen, G. N. Chuev,
      C. J. Cramer, J. Daily, M. J. O. Deegan, T. H. Dunning Jr., M. Dupuis,
   K. G. Dyall, G. I. Fann, S. A. Fischer, A. Fonari, H. Frchtl, L. Gagliardi,
      J. Garza, N. Gawande, S. Ghosh, K. Glaesemann, A. W. Gtz, J. Hammond,
       V. Helms, E. D. Hermes, K. Hirao, S. Hirata, M. Jacquelin, L. Jensen,
   B. G. Johnson, H. Jnsson, R. A. Kendall, M. Klemm, R. Kobayashi, V. Konkov,
      S. Krishnamoorthy, M. Krishnan, Z. Lin, R. D. Lins, R. J. Littlefield,
      A. J. Logsdail, K. Lopata, W. Ma, A. V. Marenich, J. Martin del Campo,
   D. Mejia-Rodriguez, J. E. Moore, J. M. Mullin, T. Nakajima, D. R. Nascimento,
    J. A. Nichols, P. J. Nichols, J. Nieplocha, A. Otero-de-la-Roza, B. Palmer,
    A. Panyala, T. Pirojsirikul, B. Peng, R. Peverati, J. Pittner, L. Pollack,
   R. M. Richard, P. Sadayappan, G. C. Schatz, W. A. Shelton, D. W. Silverstein,
   D. M. A. Smith, T. A. Soares, D. Song, M. Swart, H. L. Taylor, G. S. Thomas,
            V. Tipparaju, D. G. Truhlar, K. Tsemekhman, T. Van Voorhis,
     . Vzquez-Mayagoitia, P. Verma, O. Villa, A. Vishnu, K. D. Vogiatzis,
        D. Wang, J. H. Weare, M. J. Williamson, T. L. Windus, K. Woliski,
        A. T. Wong, Q. Wu, C. Yang, Q. Yu, M. Zacharias, Z. Zhang, Y. Zhao,
                                and R. J. Harrison
                        "NWChem: Past, present, and future
                         J. Chem. Phys. 152, 184102 (2020)
                               doi:10.1063/5.0004997

                                      AUTHORS
                                      -------
     E. Apra, E. J. Bylaska, N. Govind, K. Kowalski, M. Valiev, W. A. de Jong,
      T. P. Straatsma, H. J. J. van Dam, D. Wang, T. L. Windus, N. P. Bauman,
       A. Panyala, J. Hammond, J. Autschbach, K. Bhaskaran-Nair, J. Brabec,
    K. Lopata, S. A. Fischer, S. Krishnamoorthy, M. Jacquelin, W. Ma, M. Klemm,
       O. Villa, Y. Chen, V. Anisimov, F. Aquino, S. Hirata, M. T. Hackler,
           Eric Hermes, L. Jensen, J. E. Moore, J. C. Becca, V. Konjkov,
            D. Mejia-Rodriguez, T. Risthaus, M. Malagoli, A. Marenich,
   A. Otero-de-la-Roza, J. Mullin, P. Nichols, R. Peverati, J. Pittner, Y. Zhao,
        P.-D. Fan, A. Fonari, M. J. Williamson, R. J. Harrison, J. R. Rehr,
      M. Dupuis, D. Silverstein, D. M. A. Smith, J. Nieplocha, V. Tipparaju,
      M. Krishnan, B. E. Van Kuiken, A. Vazquez-Mayagoitia, M. Swart, Q. Wu,
   T. Van Voorhis, A. A. Auer, M. Nooijen, L. D. Crosby, E. Brown, G. Cisneros,
     G. I. Fann, H. Fruchtl, J. Garza, K. Hirao, R. A. Kendall, J. A. Nichols,
       K. Tsemekhman, K. Wolinski, J. Anchell, D. E. Bernholdt, P. Borowski,
       T. Clark, D. Clerc, H. Dachsel, M. J. O. Deegan, K. Dyall, D. Elwood,
      E. Glendening, M. Gutowski, A. C. Hess, J. Jaffe, B. G. Johnson, J. Ju,
        R. Kobayashi, R. Kutteh, Z. Lin, R. Littlefield, X. Long, B. Meng,
      T. Nakajima, S. Niu, L. Pollack, M. Rosing, K. Glaesemann, G. Sandrone,
      M. Stave, H. Taylor, G. Thomas, J. H. van Lenthe, A. T. Wong, Z. Zhang.

 Total times  cpu:      956.0s     wall:      910.6s
