 argument  1 = C1C2C1C2_mol_4_conformer_0.nw



============================== echo of input deck ==============================
start

title "Molecule conformer 0"

memory total 4000 mb

echo
geometry units angstroms
   C     -1.1676     0.4518    -0.2937
   C      0.1447     0.6172     0.4390
   C     -0.1640    -0.6786    -0.3278
   C      1.2560    -0.1717    -0.2157
   H     -1.2281     1.0272    -1.2407
   H     -2.0480     0.2749     0.3602
   H      0.0563     0.4100     1.5286
   H     -0.3934    -1.4779     0.4114
   H      1.6433     0.2881    -1.1486
   H      1.9008    -0.7410     0.4873
end


basis spherical
* library 6-311G
end

driver
  maxiter 500
  xyz final
end

relativistic
  zora on
  zora:cutoff_NMR 1d-8
  zora:cutoff 1d-30
end

dft
  direct
  grid fine
  xc B3LYP
  mult 1
  maxiter 1500
  noprint "final vectors analysis" multipole
end

task dft optimize

task dft freq

property
  shielding 6 5 6 7 8 9 10
end

cosmo
   solvent cdcl3
end

task dft property
================================================================================


                                         
                                         


             Northwest Computational Chemistry Package (NWChem) 7.0.2
             --------------------------------------------------------


                    Environmental Molecular Sciences Laboratory
                       Pacific Northwest National Laboratory
                                Richland, WA 99352

                              Copyright (c) 1994-2020
                       Pacific Northwest National Laboratory
                            Battelle Memorial Institute

             NWChem is an open-source computational chemistry package
                        distributed under the terms of the
                      Educational Community License (ECL) 2.0
             A copy of the license is included with this distribution
                              in the LICENSE.TXT file

                                  ACKNOWLEDGMENT
                                  --------------

            This software and its documentation were developed at the
            EMSL at Pacific Northwest National Laboratory, a multiprogram
            national laboratory, operated for the U.S. Department of Energy
            by Battelle under Contract Number DE-AC05-76RL01830. Support
            for this work was provided by the Department of Energy Office
            of Biological and Environmental Research, Office of Basic
            Energy Sciences, and the Office of Advanced Scientific Computing.


           Job information
           ---------------

    hostname        = ponder
    program         = nwchem
    date            = Sat Aug  3 14:28:13 2024

    compiled        = Sat_Apr_09_17:12:10_2022
    source          = /build/nwchem-f1f4gx/nwchem-7.0.2/build-openmpi
    nwchem branch   = 7.0.2
    nwchem revision = N/A
    ga revision     = 5.8.1
    use scalapack   = T
    input           = C1C2C1C2_mol_4_conformer_0.nw
    prefix          = C1C2C1C2_mol_4_conformer_0.
    data base       = ./C1C2C1C2_mol_4_conformer_0.db
    status          = startup
    nproc           =       40
    time left       =     -1s



           Memory information
           ------------------

    heap     =  131071998 doubles =   1000.0 Mbytes
    stack    =  131071995 doubles =   1000.0 Mbytes
    global   =  262144000 doubles =   2000.0 Mbytes (distinct from heap & stack)
    total    =  524287993 doubles =   4000.0 Mbytes
    verify   = yes
    hardfail = no 


           Directory information
           ---------------------

  0 permanent = .
  0 scratch   = .




                                NWChem Input Module
                                -------------------


                               Molecule conformer 0
                               --------------------

 Scaling coordinates for geometry "geometry" by  1.889725989
 (inverse scale =  0.529177249)

 C2V symmetry detected

          ------
          auto-z
          ------
  no constraints, skipping    0.0000000000000000     
  no constraints, skipping    0.0000000000000000     


                             Geometry "geometry" -> ""
                             -------------------------

 Output coordinates in angstroms (scale by  1.889725989 to convert to a.u.)

  No.       Tag          Charge          X              Y              Z
 ---- ---------------- ---------- -------------- -------------- --------------
    1 C                    6.0000     0.00000000    -1.25186593     0.21741803
    2 C                    6.0000     0.76850107     0.00000000    -0.14082974
    3 C                    6.0000    -0.76850107     0.00000000    -0.14082974
    4 C                    6.0000     0.00000000     1.25186593     0.21741803
    5 H                    1.0000     0.00000000    -1.48321349     1.30282821
    6 H                    1.0000     0.00000000    -2.03968310    -0.56576444
    7 H                    1.0000     1.11965757     0.00000000    -1.19659351
    8 H                    1.0000    -1.11965757     0.00000000    -1.19659351
    9 H                    1.0000     0.00000000     1.48321349     1.30282821
   10 H                    1.0000     0.00000000     2.03968310    -0.56576444

      Atomic Mass 
      ----------- 

      C                 12.000000
      H                  1.007825


 Effective nuclear repulsion energy (a.u.)     114.6836907011

            Nuclear Dipole moment (a.u.) 
            ----------------------------
        X                 Y               Z
 ---------------- ---------------- ----------------
     0.0000000000     0.0000000000    -0.0000000000

      Symmetry information
      --------------------

 Group name             C2v       
 Group number             16
 Group order               4
 No. of unique centers     5

      Symmetry unique atoms

     1    2    5    6    7



                                Z-matrix (autoz)
                                -------- 

 Units are Angstrom for bonds and degrees for angles

      Type          Name      I     J     K     L     M      Value
      ----------- --------  ----- ----- ----- ----- ----- ----------
    1 Stretch                  1     2                       1.51199
    2 Stretch                  1     3                       1.51199
    3 Stretch                  1     5                       1.10979
    4 Stretch                  1     6                       1.11087
    5 Stretch                  2     3                       1.53700
    6 Stretch                  2     4                       1.51199
    7 Stretch                  2     7                       1.11263
    8 Stretch                  3     4                       1.51199
    9 Stretch                  3     8                       1.11263
   10 Stretch                  4     9                       1.10979
   11 Stretch                  4    10                       1.11087
   12 Bend                     1     2     3                59.45118
   13 Bend                     1     2     4               111.77969
   14 Bend                     1     2     7               112.65887
   15 Bend                     1     3     2                59.45118
   16 Bend                     1     3     4               111.77969
   17 Bend                     1     3     8               112.65887
   18 Bend                     2     1     3                61.09765
   19 Bend                     2     1     5               113.84916
   20 Bend                     2     1     6               114.84315
   21 Bend                     2     3     4                59.45118
   22 Bend                     2     3     8               108.39759
   23 Bend                     2     4     3                61.09765
   24 Bend                     2     4     9               113.84916
   25 Bend                     2     4    10               114.84315
   26 Bend                     3     1     5               113.84916
   27 Bend                     3     1     6               114.84315
   28 Bend                     3     2     4                59.45118
   29 Bend                     3     2     7               108.39759
   30 Bend                     3     4     9               113.84916
   31 Bend                     3     4    10               114.84315
   32 Bend                     4     2     7               112.65887
   33 Bend                     4     3     8               112.65887
   34 Bend                     5     1     6               122.79883
   35 Bend                     9     4    10               122.79883
   36 Torsion                  1     2     3     4         148.06082
   37 Torsion                  1     2     3     8        -105.96959
   38 Torsion                  1     2     4     3         -29.38068
   39 Torsion                  1     2     4     9          75.74347
   40 Torsion                  1     2     4    10        -135.23827
   41 Torsion                  1     3     2     4        -148.06082
   42 Torsion                  1     3     2     7         105.96959
   43 Torsion                  1     3     4     2          29.38068
   44 Torsion                  1     3     4     9         -75.74347
   45 Torsion                  1     3     4    10         135.23827
   46 Torsion                  2     1     3     4         -29.38068
   47 Torsion                  2     1     3     8          98.67007
   48 Torsion                  2     3     1     5         105.12415
   49 Torsion                  2     3     1     6        -105.85759
   50 Torsion                  2     3     4     9        -105.12415
   51 Torsion                  2     3     4    10         105.85759
   52 Torsion                  2     4     3     8         -98.67007
   53 Torsion                  3     1     2     4          29.38068
   54 Torsion                  3     1     2     7         -98.67007
   55 Torsion                  3     2     1     5        -105.12415
   56 Torsion                  3     2     1     6         105.85759
   57 Torsion                  3     2     4     9         105.12415
   58 Torsion                  3     2     4    10        -105.85759
   59 Torsion                  3     4     2     7          98.67007
   60 Torsion                  4     2     1     5         -75.74347
   61 Torsion                  4     2     1     6         135.23827
   62 Torsion                  4     2     3     8         105.96959
   63 Torsion                  4     3     1     5          75.74347
   64 Torsion                  4     3     1     6        -135.23827
   65 Torsion                  4     3     2     7        -105.96959
   66 Torsion                  5     1     2     7         156.20578
   67 Torsion                  5     1     3     8        -156.20578
   68 Torsion                  6     1     2     7           7.18752
   69 Torsion                  6     1     3     8          -7.18752
   70 Torsion                  7     2     3     8          -0.00000
   71 Torsion                  7     2     4     9        -156.20578
   72 Torsion                  7     2     4    10          -7.18752
   73 Torsion                  8     3     4     9         156.20578
   74 Torsion                  8     3     4    10           7.18752


            XYZ format geometry
            -------------------
    10
 geometry
 C                     0.00000000    -1.25186593     0.21741803
 C                     0.76850107     0.00000000    -0.14082974
 C                    -0.76850107     0.00000000    -0.14082974
 C                     0.00000000     1.25186593     0.21741803
 H                     0.00000000    -1.48321349     1.30282821
 H                     0.00000000    -2.03968310    -0.56576444
 H                     1.11965757     0.00000000    -1.19659351
 H                    -1.11965757     0.00000000    -1.19659351
 H                     0.00000000     1.48321349     1.30282821
 H                     0.00000000     2.03968310    -0.56576444

 ==============================================================================
                                internuclear distances
 ------------------------------------------------------------------------------
       center one      |      center two      | atomic units |  angstroms
 ------------------------------------------------------------------------------
    2 C                |   1 C                |     2.85724  |     1.51199
    3 C                |   1 C                |     2.85724  |     1.51199
    3 C                |   2 C                |     2.90451  |     1.53700
    4 C                |   2 C                |     2.85724  |     1.51199
    4 C                |   3 C                |     2.85724  |     1.51199
    5 H                |   1 C                |     2.09720  |     1.10979
    6 H                |   1 C                |     2.09924  |     1.11087
    7 H                |   2 C                |     2.10257  |     1.11263
    8 H                |   3 C                |     2.10257  |     1.11263
    9 H                |   4 C                |     2.09720  |     1.10979
   10 H                |   4 C                |     2.09924  |     1.11087
 ------------------------------------------------------------------------------
                         number of included internuclear distances:         11
 ==============================================================================



 ==============================================================================
                                 internuclear angles
 ------------------------------------------------------------------------------
        center 1       |       center 2       |       center 3       |  degrees
 ------------------------------------------------------------------------------
    2 C                |   1 C                |   3 C                |    61.10
    2 C                |   1 C                |   5 H                |   113.85
    2 C                |   1 C                |   6 H                |   114.84
    3 C                |   1 C                |   5 H                |   113.85
    3 C                |   1 C                |   6 H                |   114.84
    5 H                |   1 C                |   6 H                |   122.80
    2 C                |   1 C                |   3 C                |    61.10
    1 C                |   2 C                |   4 C                |   111.78
    1 C                |   2 C                |   7 H                |   112.66
    2 C                |   4 C                |   3 C                |    61.10
    3 C                |   2 C                |   7 H                |   108.40
    4 C                |   2 C                |   7 H                |   112.66
    3 C                |   1 C                |   2 C                |    61.10
    1 C                |   3 C                |   4 C                |   111.78
    1 C                |   3 C                |   8 H                |   112.66
    3 C                |   4 C                |   2 C                |    61.10
    2 C                |   3 C                |   8 H                |   108.40
    4 C                |   3 C                |   8 H                |   112.66
    2 C                |   4 C                |   3 C                |    61.10
    2 C                |   4 C                |   9 H                |   113.85
    2 C                |   4 C                |  10 H                |   114.84
    3 C                |   4 C                |   9 H                |   113.85
    3 C                |   4 C                |  10 H                |   114.84
    9 H                |   4 C                |  10 H                |   122.80
 ------------------------------------------------------------------------------
                            number of included internuclear angles:         24
 ==============================================================================





 Summary of "ao basis" -> "" (spherical)
 ------------------------------------------------------------------------------
       Tag                 Description            Shells   Functions and Types
 ---------------- ------------------------------  ------  ---------------------
 *                           6-311G                   on all atoms 




                           NWChem Geometry Optimization
                           ----------------------------




                               Molecule conformer 0


  no constraints, skipping    0.0000000000000000     
 maximum gradient threshold         (gmax) =   0.000450
 rms gradient threshold             (grms) =   0.000300
 maximum cartesian step threshold   (xmax) =   0.001800
 rms cartesian step threshold       (xrms) =   0.001200
 fixed trust radius                (trust) =   0.300000
 maximum step size to saddle      (sadstp) =   0.100000
 energy precision                  (eprec) =   5.0D-06
 maximum number of steps          (nptopt) =  500
 initial hessian option           (inhess) =    0
 line search option               (linopt) =    1
 hessian update option            (modupd) =    1
 saddle point option              (modsad) =    0
 initial eigen-mode to follow     (moddir) =    0
 initial variable to follow       (vardir) =    0
 follow first negative mode     (firstneg) =    T
 apply conjugacy                    (opcg) =    F
 source of zmatrix                         =   autoz   


          -------------------
          Energy Minimization
          -------------------


 Names of Z-matrix variables 
    1              2              3              4              5         
    6              7              8              9             10         
   11             12             13             14             15         
   16             17             18             19             20         
   21             22             23             24             25         
   26             27             28             29             30         
   31             32             33             34             35         
   36             37             38             39             40         
   41             42             43             44             45         
   46             47             48             49             50         
   51             52             53             54             55         
   56             57             58             59             60         
   61             62             63             64             65         
   66             67             68             69             70         
   71             72             73             74         

 Variables with the same non-blank name are constrained to be equal


 Using diagonal initial Hessian 
 Scaling for Hessian diagonals: bonds = 1.00  angles = 0.25  torsions = 0.10

          --------
          Step   0
          --------


                         Geometry "geometry" -> "geometry"
                         ---------------------------------

 Output coordinates in angstroms (scale by  1.889725989 to convert to a.u.)

  No.       Tag          Charge          X              Y              Z
 ---- ---------------- ---------- -------------- -------------- --------------
    1 C                    6.0000     0.00000000    -1.25186593     0.21741803
    2 C                    6.0000     0.76850107     0.00000000    -0.14082974
    3 C                    6.0000    -0.76850107     0.00000000    -0.14082974
    4 C                    6.0000     0.00000000     1.25186593     0.21741803
    5 H                    1.0000     0.00000000    -1.48321349     1.30282821
    6 H                    1.0000     0.00000000    -2.03968310    -0.56576444
    7 H                    1.0000     1.11965757     0.00000000    -1.19659351
    8 H                    1.0000    -1.11965757     0.00000000    -1.19659351
    9 H                    1.0000     0.00000000     1.48321349     1.30282821
   10 H                    1.0000     0.00000000     2.03968310    -0.56576444

      Atomic Mass 
      ----------- 

      C                 12.000000
      H                  1.007825


 Effective nuclear repulsion energy (a.u.)     114.6836907011

            Nuclear Dipole moment (a.u.) 
            ----------------------------
        X                 Y               Z
 ---------------- ---------------- ----------------
     0.0000000000     0.0000000000    -0.0000000000

      Symmetry information
      --------------------

 Group name             C2v       
 Group number             16
 Group order               4
 No. of unique centers     5

      Symmetry unique atoms

     1    2    5    6    7


                                 NWChem DFT Module
                                 -----------------


                               Molecule conformer 0


                      Basis "ao basis" -> "ao basis" (spherical)
                      -----
  C (Carbon)
  ----------
            Exponent  Coefficients 
       -------------- ---------------------------------------------------------
  1 S  4.56324000E+03  0.001967
  1 S  6.82024000E+02  0.015231
  1 S  1.54973000E+02  0.076127
  1 S  4.44553000E+01  0.260801
  1 S  1.30290000E+01  0.616462
  1 S  1.82773000E+00  0.221006

  2 S  2.09642000E+01  0.114660
  2 S  4.80331000E+00  0.919999
  2 S  1.45933000E+00 -0.003031

  3 P  2.09642000E+01  0.040249
  3 P  4.80331000E+00  0.237594
  3 P  1.45933000E+00  0.815854

  4 S  4.83456000E-01  1.000000

  5 P  4.83456000E-01  1.000000

  6 S  1.45585000E-01  1.000000

  7 P  1.45585000E-01  1.000000

  H (Hydrogen)
  ------------
            Exponent  Coefficients 
       -------------- ---------------------------------------------------------
  1 S  3.38650000E+01  0.025494
  1 S  5.09479000E+00  0.190373
  1 S  1.15879000E+00  0.852161

  2 S  3.25840000E-01  1.000000

  3 S  1.02741000E-01  1.000000



 Summary of "ao basis" -> "ao basis" (spherical)
 ------------------------------------------------------------------------------
       Tag                 Description            Shells   Functions and Types
 ---------------- ------------------------------  ------  ---------------------
 C                           6-311G                  7       13   4s3p
 H                           6-311G                  3        3   3s




 Summary of "ao basis" -> "ao basis" (spherical)
 ------------------------------------------------------------------------------
       Tag                 Description            Shells   Functions and Types
 ---------------- ------------------------------  ------  ---------------------
 C                           6-311G                  7       13   4s3p
 H                           6-311G                  3        3   3s


      Symmetry analysis of basis
      --------------------------

        a1         29
        a2          6
        b1         16
        b2         19

  Caching 1-el integrals 

            General Information
            -------------------
          SCF calculation type: DFT
          Wavefunction type:  closed shell.
          No. of atoms     :    10
          No. of electrons :    30
           Alpha electrons :    15
            Beta electrons :    15
          Charge           :     0
          Spin multiplicity:     1
          Use of symmetry is: on ; symmetry adaption is: on 
          Maximum number of iterations: ***
          This is a Direct SCF calculation.
          AO basis - number of functions:    70
                     number of shells:    46
          Convergence on energy requested:  1.00D-06
          Convergence on density requested:  1.00D-05
          Convergence on gradient requested:  5.00D-04

              XC Information
              --------------
                         B3LYP Method XC Potential
                     Hartree-Fock (Exact) Exchange  0.200          
                        Slater Exchange Functional  0.800 local    
                    Becke 1988 Exchange Functional  0.720 non-local
              Lee-Yang-Parr Correlation Functional  0.810          
                  VWN I RPA Correlation Functional  0.190 local    

             Grid Information
             ----------------
          Grid used for XC integration:  fine      
          Radial quadrature: Mura-Knowles        
          Angular quadrature: Lebedev. 
          Tag              B.-S. Rad. Rad. Pts. Rad. Cut. Ang. Pts.
          ---              ---------- --------- --------- ---------
          C                   0.70       70          10.0       590
          H                   0.35       60          11.0       590
          Grid pruning is: on 
          Number of quadrature shells:   320
          Spatial weights used:  Erf1

          Convergence Information
          -----------------------
          Convergence aids based upon iterative change in 
          total energy or number of iterations. 
          Levelshifting, if invoked, occurs when the 
          HOMO/LUMO gap drops below (HL_TOL):  1.00D-02
          DIIS, if invoked, will attempt to extrapolate 
          using up to (NFOCK): 10 stored Fock matrices.

                    Damping( 0%)  Levelshifting(0.5)       DIIS
                  --------------- ------------------- ---------------
          dE  on:    start            ASAP                start   
          dE off:    2 iters        *** iters           *** iters 


      Screening Tolerance Information
      -------------------------------
          Density screening/tol_rho:  1.00D-10
          AO Gaussian exp screening on grid/accAOfunc:  14
          CD Gaussian exp screening on grid/accCDfunc:  20
          XC Gaussian exp screening on grid/accXCfunc:  20
          Schwarz screening/accCoul:  1.00D-08

          Performing ZORA calculations
          ----------------------------


      Superposition of Atomic Density Guess
      -------------------------------------

 Sum of atomic energies:        -153.67306699

 Read atomic ZORA corrections from ./C1C2C1C2_mol_4_conformer_0.zora_sf

 dft_zora_read: failed to open./C1C2C1C2_mol_4_conformer_0.zora_sf
 Forcing recalculation of ZORA corrections
       Generating atomic ZORA corrections
       ----------------------------------

 In dft_scf:: zora:Knucl= F

 Grid_pts file          = ./C1C2C1C2_mol_4_conformer_0.gridpts.00
 Record size in doubles =  12289        No. of grid_pts per rec  =   3070
 Max. records in memory =      3        Max. recs in file   =     13567

 Grid integrated density:      29.999985317883
 Requested integration accuracy:   0.10E-06

 Wrote atomic ZORA corrections to ./C1C2C1C2_mol_4_conformer_0.zora_sf


      Superposition of Atomic Density Guess
      -------------------------------------

 Sum of atomic energies:        -153.67306699

      Non-variational initial energy
      ------------------------------

 Total energy =    -156.684448
 1-e energy   =    -431.542984
 2-e energy   =     160.174845
 HOMO         =      -0.249832
 LUMO         =       0.040413


      Symmetry analysis of molecular orbitals - initial
      -------------------------------------------------

  Numbering of irreducible representations: 

     1 a1          2 a2          3 b1          4 b2      

  Orbital symmetries:

     1 a1          2 b2          3 a1          4 b1          5 a1      
     6 b2          7 b1          8 a1          9 a1         10 b2      
    11 a1         12 b2         13 a2         14 b1         15 a1      
    16 b1         17 a1         18 a1         19 b2         20 b1      
    21 a1         22 b2         23 a2         24 b1         25 a1      

   Time after variat. SCF:      5.7
   Time prior to 1st pass:      5.7
 Grid integrated density:      29.999991396292
 Requested integration accuracy:   0.10E-06

           Memory utilization after 1st SCF pass: 
           Heap Space remaining (MW):      131.03           131029062
          Stack Space remaining (MW):      131.06           131061508

   convergence    iter        energy       DeltaE   RMS-Dens  Diis-err    time
 ---------------- ----- ----------------- --------- --------- ---------  ------
 d= 0,ls=0.0,diis     1   -155.9267201492 -2.71D+02  1.44D-02  5.78D-01     8.2
 Grid integrated density:      29.999992467728
 Requested integration accuracy:   0.10E-06
 d= 0,ls=0.0,diis     2   -155.9699254042 -4.32D-02  8.15D-03  6.91D-02    10.1
 Grid integrated density:      29.999992554816
 Requested integration accuracy:   0.10E-06
 d= 0,ls=0.0,diis     3   -155.9733892077 -3.46D-03  2.21D-03  4.34D-02    11.5
 Grid integrated density:      29.999992587387
 Requested integration accuracy:   0.10E-06
 d= 0,ls=0.0,diis     4   -155.9788520712 -5.46D-03  3.99D-04  4.06D-04    13.2
 Grid integrated density:      29.999992610724
 Requested integration accuracy:   0.10E-06
 d= 0,ls=0.0,diis     5   -155.9788931303 -4.11D-05  1.61D-04  7.44D-05    15.2
 Grid integrated density:      29.999992605655
 Requested integration accuracy:   0.10E-06
  Resetting Diis
 d= 0,ls=0.0,diis     6   -155.9789030877 -9.96D-06  4.71D-05  1.37D-06    17.3
 Grid integrated density:      29.999992605032
 Requested integration accuracy:   0.10E-06
 d= 0,ls=0.0,diis     7   -155.9789033082 -2.20D-07  4.37D-06  1.49D-08    18.9
(nogshift,skip_gshiftAOev,done_Fji)=( 1,F,F)


         Total DFT energy =     -155.978903308155
      One electron energy =     -434.799053873789
           Coulomb energy =      188.029758811803
    Exchange-Corr. energy =      -23.893298947304
 Nuclear repulsion energy =      114.683690701134

       Scaling correction =        0.035100372220

 Numeric. integr. density =       29.999992605032

     Total iterative time =     13.3s



                  Occupations of the irreducible representations
                  ----------------------------------------------

                     irrep           alpha         beta
                     --------     --------     --------
                     a1                7.0          7.0
                     a2                1.0          1.0
                     b1                3.0          3.0
                     b2                4.0          4.0


 center of mass
 --------------
 x =   0.00000000 y =   0.00000000 z =   0.03188303

 moments of inertia (a.u.)
 ------------------
         210.620275165426           0.000000000000           0.000000000000
           0.000000000000          90.165073712537           0.000000000000
           0.000000000000           0.000000000000         239.736883935230

            General Information
            -------------------
          SCF calculation type: DFT
          Wavefunction type:  closed shell.
          No. of atoms     :    10
          No. of electrons :    30
           Alpha electrons :    15
            Beta electrons :    15
          Charge           :     0
          Spin multiplicity:     1
          Use of symmetry is: on ; symmetry adaption is: on 
          Maximum number of iterations: ***
          This is a Direct SCF calculation.
          AO basis - number of functions:    70
                     number of shells:    46
          Convergence on energy requested:  1.00D-06
          Convergence on density requested:  1.00D-05
          Convergence on gradient requested:  5.00D-04

              XC Information
              --------------
                         B3LYP Method XC Potential
                     Hartree-Fock (Exact) Exchange  0.200          
                        Slater Exchange Functional  0.800 local    
                    Becke 1988 Exchange Functional  0.720 non-local
              Lee-Yang-Parr Correlation Functional  0.810          
                  VWN I RPA Correlation Functional  0.190 local    

             Grid Information
             ----------------
          Grid used for XC integration:  fine      
          Radial quadrature: Mura-Knowles        
          Angular quadrature: Lebedev. 
          Tag              B.-S. Rad. Rad. Pts. Rad. Cut. Ang. Pts.
          ---              ---------- --------- --------- ---------
          C                   0.70       70          10.0       590
          H                   0.35       60          11.0       590
          Grid pruning is: on 
          Number of quadrature shells:   320
          Spatial weights used:  Erf1

          Convergence Information
          -----------------------
          Convergence aids based upon iterative change in 
          total energy or number of iterations. 
          Levelshifting, if invoked, occurs when the 
          HOMO/LUMO gap drops below (HL_TOL):  1.00D-02
          DIIS, if invoked, will attempt to extrapolate 
          using up to (NFOCK): 10 stored Fock matrices.

                    Damping( 0%)  Levelshifting(0.5)       DIIS
                  --------------- ------------------- ---------------
          dE  on:    start            ASAP                start   
          dE off:    2 iters        *** iters           *** iters 


      Screening Tolerance Information
      -------------------------------
          Density screening/tol_rho:  1.00D-10
          AO Gaussian exp screening on grid/accAOfunc:  14
          CD Gaussian exp screening on grid/accCDfunc:  20
          XC Gaussian exp screening on grid/accXCfunc:  20
          Schwarz screening/accCoul:  1.00D-08



                            NWChem DFT Gradient Module
                            --------------------------


                               Molecule conformer 0



  charge          =   0.00
  wavefunction    = closed shell

  Using symmetry


                         DFT ENERGY GRADIENTS

    atom               coordinates                        gradient
                 x          y          z           x          y          z
   1 C       0.000000  -2.365684   0.410861    0.000000  -0.026668  -0.044407
   2 C       1.452256   0.000000  -0.266130   -0.046484   0.000000   0.066161
   3 C      -1.452256   0.000000  -0.266130    0.046484   0.000000   0.066161
   4 C       0.000000   2.365684   0.410861   -0.000000   0.026668  -0.044407
   5 H       0.000000  -2.802867   2.461988    0.000000   0.012197   0.019831
   6 H       0.000000  -3.854442  -1.069140    0.000000  -0.009423  -0.020866
   7 H       2.115846   0.000000  -2.261234   -0.008583   0.000000  -0.020719
   8 H      -2.115846   0.000000  -2.261234    0.008583   0.000000  -0.020719
   9 H       0.000000   2.802867   2.461988   -0.000000  -0.012197   0.019831
  10 H       0.000000   3.854442  -1.069140    0.000000   0.009423  -0.020866

                 ----------------------------------------
                 |  Time  |  1-e(secs)   |  2-e(secs)   |
                 ----------------------------------------
                 |  CPU   |       0.00   |       0.03   |
                 ----------------------------------------
                 |  WALL  |       0.00   |       0.03   |
                 ----------------------------------------
  no constraints, skipping    0.0000000000000000     

@ Step       Energy      Delta E   Gmax     Grms     Xrms     Xmax   Walltime
@ ---- ---------------- -------- -------- -------- -------- -------- --------
@    0    -155.97890331  0.0D+00  0.02139  0.00708  0.00000  0.00000     20.5
                                                                    



                                Z-matrix (autoz)
                                -------- 

 Units are Angstrom for bonds and degrees for angles

      Type          Name      I     J     K     L     M      Value     Gradient
      ----------- --------  ----- ----- ----- ----- ----- ---------- ----------
    1 Stretch                  1     2                       1.51199   -0.00496
    2 Stretch                  1     3                       1.51199   -0.00496
    3 Stretch                  1     5                       1.10979    0.01685
    4 Stretch                  1     6                       1.11087    0.02139
    5 Stretch                  2     3                       1.53700   -0.01779
    6 Stretch                  2     4                       1.51199   -0.00496
    7 Stretch                  2     7                       1.11263    0.01695
    8 Stretch                  3     4                       1.51199   -0.00496
    9 Stretch                  3     8                       1.11263    0.01695
   10 Stretch                  4     9                       1.10979    0.01685
   11 Stretch                  4    10                       1.11087    0.02139
   12 Bend                     1     2     3                59.45118    0.00489
   13 Bend                     1     2     4               111.77969    0.01173
   14 Bend                     1     2     7               112.65887   -0.00584
   15 Bend                     1     3     2                59.45118    0.00489
   16 Bend                     1     3     4               111.77969    0.01173
   17 Bend                     1     3     8               112.65887   -0.00584
   18 Bend                     2     1     3                61.09765   -0.00979
   19 Bend                     2     1     5               113.84916   -0.00154
   20 Bend                     2     1     6               114.84315    0.00185
   21 Bend                     2     3     4                59.45118    0.00489
   22 Bend                     2     3     8               108.39759   -0.00426
   23 Bend                     2     4     3                61.09765   -0.00979
   24 Bend                     2     4     9               113.84916   -0.00154
   25 Bend                     2     4    10               114.84315    0.00185
   26 Bend                     3     1     5               113.84916   -0.00154
   27 Bend                     3     1     6               114.84315    0.00185
   28 Bend                     3     2     4                59.45118    0.00489
   29 Bend                     3     2     7               108.39759   -0.00426
   30 Bend                     3     4     9               113.84916   -0.00154
   31 Bend                     3     4    10               114.84315    0.00185
   32 Bend                     4     2     7               112.65887   -0.00584
   33 Bend                     4     3     8               112.65887   -0.00584
   34 Bend                     5     1     6               122.79883    0.00277
   35 Bend                     9     4    10               122.79883    0.00277
   36 Torsion                  1     2     3     4         148.06082    0.00757
   37 Torsion                  1     2     3     8        -105.96959    0.00378
   38 Torsion                  1     2     4     3         -29.38068    0.00257
   39 Torsion                  1     2     4     9          75.74347   -0.00158
   40 Torsion                  1     2     4    10        -135.23827    0.00437
   41 Torsion                  1     3     2     4        -148.06082   -0.00757
   42 Torsion                  1     3     2     7         105.96959   -0.00378
   43 Torsion                  1     3     4     2          29.38068   -0.00257
   44 Torsion                  1     3     4     9         -75.74347    0.00158
   45 Torsion                  1     3     4    10         135.23827   -0.00437
   46 Torsion                  2     1     3     4         -29.38068    0.00257
   47 Torsion                  2     1     3     8          98.67007   -0.00040
   48 Torsion                  2     3     1     5         105.12415   -0.00415
   49 Torsion                  2     3     1     6        -105.85759    0.00180
   50 Torsion                  2     3     4     9        -105.12415    0.00415
   51 Torsion                  2     3     4    10         105.85759   -0.00180
   52 Torsion                  2     4     3     8         -98.67007    0.00040
   53 Torsion                  3     1     2     4          29.38068   -0.00257
   54 Torsion                  3     1     2     7         -98.67007    0.00040
   55 Torsion                  3     2     1     5        -105.12415    0.00415
   56 Torsion                  3     2     1     6         105.85759   -0.00180
   57 Torsion                  3     2     4     9         105.12415   -0.00415
   58 Torsion                  3     2     4    10        -105.85759    0.00180
   59 Torsion                  3     4     2     7          98.67007   -0.00040
   60 Torsion                  4     2     1     5         -75.74347    0.00158
   61 Torsion                  4     2     1     6         135.23827   -0.00437
   62 Torsion                  4     2     3     8         105.96959   -0.00378
   63 Torsion                  4     3     1     5          75.74347   -0.00158
   64 Torsion                  4     3     1     6        -135.23827    0.00437
   65 Torsion                  4     3     2     7        -105.96959    0.00378
   66 Torsion                  5     1     2     7         156.20578    0.00455
   67 Torsion                  5     1     3     8        -156.20578   -0.00455
   68 Torsion                  6     1     2     7           7.18752   -0.00140
   69 Torsion                  6     1     3     8          -7.18752    0.00140
   70 Torsion                  7     2     3     8          -0.00000   -0.00000
   71 Torsion                  7     2     4     9        -156.20578   -0.00455
   72 Torsion                  7     2     4    10          -7.18752    0.00140
   73 Torsion                  8     3     4     9         156.20578    0.00455
   74 Torsion                  8     3     4    10           7.18752   -0.00140

 Restricting large step in mode    7 eval= 3.6D-02 step=-4.3D-01 new=-3.0D-01
 Restricting large step in mode   12 eval= 4.3D-02 step=-3.5D-01 new=-3.0D-01
  no constraints, skipping    0.0000000000000000     
  no constraints, skipping    0.0000000000000000     
  no constraints, skipping    0.0000000000000000     
  no constraints, skipping    0.0000000000000000     
  no constraints, skipping    0.0000000000000000     
  no constraints, skipping    0.0000000000000000     
  no constraints, skipping    0.0000000000000000     
  no constraints, skipping    0.0000000000000000     

                                 NWChem DFT Module
                                 -----------------


                               Molecule conformer 0




 Summary of "ao basis" -> "ao basis" (spherical)
 ------------------------------------------------------------------------------
       Tag                 Description            Shells   Functions and Types
 ---------------- ------------------------------  ------  ---------------------
 C                           6-311G                  7       13   4s3p
 H                           6-311G                  3        3   3s


      Symmetry analysis of basis
      --------------------------

        a1         29
        a2          6
        b1         16
        b2         19

  Caching 1-el integrals 

            General Information
            -------------------
          SCF calculation type: DFT
          Wavefunction type:  closed shell.
          No. of atoms     :    10
          No. of electrons :    30
           Alpha electrons :    15
            Beta electrons :    15
          Charge           :     0
          Spin multiplicity:     1
          Use of symmetry is: on ; symmetry adaption is: on 
          Maximum number of iterations: ***
          This is a Direct SCF calculation.
          AO basis - number of functions:    70
                     number of shells:    46
          Convergence on energy requested:  1.00D-06
          Convergence on density requested:  1.00D-05
          Convergence on gradient requested:  5.00D-04

              XC Information
              --------------
                         B3LYP Method XC Potential
                     Hartree-Fock (Exact) Exchange  0.200          
                        Slater Exchange Functional  0.800 local    
                    Becke 1988 Exchange Functional  0.720 non-local
              Lee-Yang-Parr Correlation Functional  0.810          
                  VWN I RPA Correlation Functional  0.190 local    

             Grid Information
             ----------------
          Grid used for XC integration:  fine      
          Radial quadrature: Mura-Knowles        
          Angular quadrature: Lebedev. 
          Tag              B.-S. Rad. Rad. Pts. Rad. Cut. Ang. Pts.
          ---              ---------- --------- --------- ---------
          C                   0.70       70          10.0       590
          H                   0.35       60          11.0       590
          Grid pruning is: on 
          Number of quadrature shells:   320
          Spatial weights used:  Erf1

          Convergence Information
          -----------------------
          Convergence aids based upon iterative change in 
          total energy or number of iterations. 
          Levelshifting, if invoked, occurs when the 
          HOMO/LUMO gap drops below (HL_TOL):  1.00D-02
          DIIS, if invoked, will attempt to extrapolate 
          using up to (NFOCK): 10 stored Fock matrices.

                    Damping( 0%)  Levelshifting(0.5)       DIIS
                  --------------- ------------------- ---------------
          dE  on:    start            ASAP                start   
          dE off:    2 iters        *** iters           *** iters 


      Screening Tolerance Information
      -------------------------------
          Density screening/tol_rho:  1.00D-10
          AO Gaussian exp screening on grid/accAOfunc:  14
          CD Gaussian exp screening on grid/accCDfunc:  20
          XC Gaussian exp screening on grid/accXCfunc:  20
          Schwarz screening/accCoul:  1.00D-08

          Performing ZORA calculations
          ----------------------------


      Superposition of Atomic Density Guess
      -------------------------------------

 Sum of atomic energies:        -153.67306699

 Read atomic ZORA corrections from ./C1C2C1C2_mol_4_conformer_0.zora_sf

 Forcing recalculation of ZORA corrections
       Generating atomic ZORA corrections
       ----------------------------------

 In dft_scf:: zora:Knucl= F

 Grid_pts file          = ./C1C2C1C2_mol_4_conformer_0.gridpts.00
 Record size in doubles =  12289        No. of grid_pts per rec  =   3070
 Max. records in memory =      3        Max. recs in file   =     13567

 Grid integrated density:      29.999992841318
 Requested integration accuracy:   0.10E-06

 Wrote atomic ZORA corrections to ./C1C2C1C2_mol_4_conformer_0.zora_sf


 Loading old vectors from job with title :

Molecule conformer 0


      Symmetry analysis of molecular orbitals - initial
      -------------------------------------------------

  Numbering of irreducible representations: 

     1 a1          2 a2          3 b1          4 b2      

  Orbital symmetries:

     1 b2          2 a1          3 a1          4 b1          5 a1      
     6 b2          7 a1          8 b1          9 a1         10 b2      
    11 b2         12 a1         13 a2         14 b1         15 a1      
    16 a1         17 b1         18 a1         19 b2         20 b1      
    21 b2         22 a1         23 a2         24 b1         25 a1      

   Time after variat. SCF:     27.5
   Time prior to 1st pass:     27.5

           Memory utilization after 1st SCF pass: 
           Heap Space remaining (MW):      131.03           131029062
          Stack Space remaining (MW):      131.06           131061508

   convergence    iter        energy       DeltaE   RMS-Dens  Diis-err    time
 ---------------- ----- ----------------- --------- --------- ---------  ------
 d= 0,ls=0.0,diis     1   -155.9945602406 -2.71D+02  3.37D-03  2.04D-02    29.2
 d= 0,ls=0.0,diis     2   -155.9978955019 -3.34D-03  7.87D-04  1.96D-03    30.8
 d= 0,ls=0.0,diis     3   -155.9979719239 -7.64D-05  3.88D-04  1.51D-03    32.3
 d= 0,ls=0.0,diis     4   -155.9981636650 -1.92D-04  4.13D-05  6.98D-06    34.6
 d= 0,ls=0.0,diis     5   -155.9981641864 -5.21D-07  2.29D-05  2.70D-06    36.3
 d= 0,ls=0.0,diis     6   -155.9981645310 -3.45D-07  5.43D-06  3.96D-08    38.4
(nogshift,skip_gshiftAOev,done_Fji)=( 1,F,F)


         Total DFT energy =     -155.998164531002
      One electron energy =     -435.542230089987
           Coulomb energy =      188.454882122357
    Exchange-Corr. energy =      -23.946366499585
 Nuclear repulsion energy =      115.035549936213

       Scaling correction =        0.035077387861

 Numeric. integr. density =       29.999997199127

     Total iterative time =     11.0s



                  Occupations of the irreducible representations
                  ----------------------------------------------

                     irrep           alpha         beta
                     --------     --------     --------
                     a1                7.0          7.0
                     a2                1.0          1.0
                     b1                3.0          3.0
                     b2                4.0          4.0


 center of mass
 --------------
 x =   0.00000000 y =   0.00000000 z =   0.00505364

 moments of inertia (a.u.)
 ------------------
         202.550343255834           0.000000000000           0.000000000000
           0.000000000000          95.394302038227           0.000000000000
           0.000000000000           0.000000000000         235.883629846502
 Line search: 
     step= 1.00 grad=-2.6D-02 hess= 7.0D-03 energy=   -155.998165 mode=downhill
 new step= 1.87                   predicted energy=   -156.003452
  no constraints, skipping    0.0000000000000000     
  no constraints, skipping    0.0000000000000000     
  no constraints, skipping    0.0000000000000000     
  no constraints, skipping    0.0000000000000000     
  no constraints, skipping    0.0000000000000000     
  no constraints, skipping    0.0000000000000000     
  no constraints, skipping    0.0000000000000000     
  no constraints, skipping    0.0000000000000000     

          --------
          Step   1
          --------


                         Geometry "geometry" -> "geometry"
                         ---------------------------------

 Output coordinates in angstroms (scale by  1.889725989 to convert to a.u.)

  No.       Tag          Charge          X              Y              Z
 ---- ---------------- ---------- -------------- -------------- --------------
    1 C                    6.0000     0.00000000    -1.18875683     0.22568697
    2 C                    6.0000     0.82193656     0.00000000    -0.21494254
    3 C                    6.0000    -0.82193656     0.00000000    -0.21494254
    4 C                    6.0000     0.00000000     1.18875683     0.22568697
    5 H                    1.0000     0.00000000    -1.41327953     1.26149289
    6 H                    1.0000     0.00000000    -1.98863985    -0.45043009
    7 H                    1.0000     1.20716768     0.00000000    -1.20474868
    8 H                    1.0000    -1.20716768     0.00000000    -1.20474868
    9 H                    1.0000     0.00000000     1.41327953     1.26149289
   10 H                    1.0000     0.00000000     1.98863985    -0.45043009

      Atomic Mass 
      ----------- 

      C                 12.000000
      H                  1.007825


 Effective nuclear repulsion energy (a.u.)     115.4177534461

            Nuclear Dipole moment (a.u.) 
            ----------------------------
        X                 Y               Z
 ---------------- ---------------- ----------------
     0.0000000000     0.0000000000    -1.2442684673

      Symmetry information
      --------------------

 Group name             C2v       
 Group number             16
 Group order               4
 No. of unique centers     5

      Symmetry unique atoms

     1    2    5    6    7


                                 NWChem DFT Module
                                 -----------------


                               Molecule conformer 0




 Summary of "ao basis" -> "ao basis" (spherical)
 ------------------------------------------------------------------------------
       Tag                 Description            Shells   Functions and Types
 ---------------- ------------------------------  ------  ---------------------
 C                           6-311G                  7       13   4s3p
 H                           6-311G                  3        3   3s


      Symmetry analysis of basis
      --------------------------

        a1         29
        a2          6
        b1         16
        b2         19

  Caching 1-el integrals 

            General Information
            -------------------
          SCF calculation type: DFT
          Wavefunction type:  closed shell.
          No. of atoms     :    10
          No. of electrons :    30
           Alpha electrons :    15
            Beta electrons :    15
          Charge           :     0
          Spin multiplicity:     1
          Use of symmetry is: on ; symmetry adaption is: on 
          Maximum number of iterations: ***
          This is a Direct SCF calculation.
          AO basis - number of functions:    70
                     number of shells:    46
          Convergence on energy requested:  1.00D-06
          Convergence on density requested:  1.00D-05
          Convergence on gradient requested:  5.00D-04

              XC Information
              --------------
                         B3LYP Method XC Potential
                     Hartree-Fock (Exact) Exchange  0.200          
                        Slater Exchange Functional  0.800 local    
                    Becke 1988 Exchange Functional  0.720 non-local
              Lee-Yang-Parr Correlation Functional  0.810          
                  VWN I RPA Correlation Functional  0.190 local    

             Grid Information
             ----------------
          Grid used for XC integration:  fine      
          Radial quadrature: Mura-Knowles        
          Angular quadrature: Lebedev. 
          Tag              B.-S. Rad. Rad. Pts. Rad. Cut. Ang. Pts.
          ---              ---------- --------- --------- ---------
          C                   0.70       70          10.0       590
          H                   0.35       60          11.0       590
          Grid pruning is: on 
          Number of quadrature shells:   320
          Spatial weights used:  Erf1

          Convergence Information
          -----------------------
          Convergence aids based upon iterative change in 
          total energy or number of iterations. 
          Levelshifting, if invoked, occurs when the 
          HOMO/LUMO gap drops below (HL_TOL):  1.00D-02
          DIIS, if invoked, will attempt to extrapolate 
          using up to (NFOCK): 10 stored Fock matrices.

                    Damping( 0%)  Levelshifting(0.5)       DIIS
                  --------------- ------------------- ---------------
          dE  on:    start            ASAP                start   
          dE off:    2 iters        *** iters           *** iters 


      Screening Tolerance Information
      -------------------------------
          Density screening/tol_rho:  1.00D-10
          AO Gaussian exp screening on grid/accAOfunc:  14
          CD Gaussian exp screening on grid/accCDfunc:  20
          XC Gaussian exp screening on grid/accXCfunc:  20
          Schwarz screening/accCoul:  1.00D-08

          Performing ZORA calculations
          ----------------------------


      Superposition of Atomic Density Guess
      -------------------------------------

 Sum of atomic energies:        -153.67306699

 Read atomic ZORA corrections from ./C1C2C1C2_mol_4_conformer_0.zora_sf

 Forcing recalculation of ZORA corrections
       Generating atomic ZORA corrections
       ----------------------------------

 In dft_scf:: zora:Knucl= F

 Grid_pts file          = ./C1C2C1C2_mol_4_conformer_0.gridpts.00
 Record size in doubles =  12289        No. of grid_pts per rec  =   3070
 Max. records in memory =      3        Max. recs in file   =     13567


 Wrote atomic ZORA corrections to ./C1C2C1C2_mol_4_conformer_0.zora_sf


 Loading old vectors from job with title :

Molecule conformer 0


      Symmetry analysis of molecular orbitals - initial
      -------------------------------------------------

  Numbering of irreducible representations: 

     1 a1          2 a2          3 b1          4 b2      

  Orbital symmetries:

     1 b2          2 a1          3 a1          4 b1          5 a1      
     6 b2          7 a1          8 b1          9 a1         10 b2      
    11 a1         12 b2         13 a2         14 b1         15 a1      
    16 b1         17 a1         18 a1         19 b2         20 b1      
    21 b2         22 a1         23 b1         24 a2         25 b2      

   Time after variat. SCF:     45.3
   Time prior to 1st pass:     45.3

           Memory utilization after 1st SCF pass: 
           Heap Space remaining (MW):      131.03           131029062
          Stack Space remaining (MW):      131.06           131061508

   convergence    iter        energy       DeltaE   RMS-Dens  Diis-err    time
 ---------------- ----- ----------------- --------- --------- ---------  ------
 d= 0,ls=0.0,diis     1   -156.0005957549 -2.71D+02  2.55D-03  1.50D-02    47.1
 d= 0,ls=0.0,diis     2   -156.0030684283 -2.47D-03  6.41D-04  1.30D-03    48.7
 d= 0,ls=0.0,diis     3   -156.0031216805 -5.33D-05  3.06D-04  9.84D-04    50.5
 d= 0,ls=0.0,diis     4   -156.0032465353 -1.25D-04  3.46D-05  4.57D-06    51.8
 d= 0,ls=0.0,diis     5   -156.0032469219 -3.87D-07  1.62D-05  1.47D-06    53.3
 d= 0,ls=0.0,diis     6   -156.0032471060 -1.84D-07  4.28D-06  3.35D-08    54.8
(nogshift,skip_gshiftAOev,done_Fji)=( 1,F,F)


         Total DFT energy =     -156.003247105979
      One electron energy =     -436.313821294903
           Coulomb energy =      188.888613058324
    Exchange-Corr. energy =      -23.995792315483
 Nuclear repulsion energy =      115.417753446083

       Scaling correction =        0.035057488083

 Numeric. integr. density =       30.000000839514

     Total iterative time =      9.6s



                  Occupations of the irreducible representations
                  ----------------------------------------------

                     irrep           alpha         beta
                     --------     --------     --------
                     a1                7.0          7.0
                     a2                1.0          1.0
                     b1                3.0          3.0
                     b2                4.0          4.0


 center of mass
 --------------
 x =   0.00000000 y =   0.00000000 z =  -0.01872933

 moments of inertia (a.u.)
 ------------------
         195.625534855070           0.000000000000           0.000000000000
           0.000000000000         100.058693610075           0.000000000000
           0.000000000000           0.000000000000         232.347365768307

            General Information
            -------------------
          SCF calculation type: DFT
          Wavefunction type:  closed shell.
          No. of atoms     :    10
          No. of electrons :    30
           Alpha electrons :    15
            Beta electrons :    15
          Charge           :     0
          Spin multiplicity:     1
          Use of symmetry is: on ; symmetry adaption is: on 
          Maximum number of iterations: ***
          This is a Direct SCF calculation.
          AO basis - number of functions:    70
                     number of shells:    46
          Convergence on energy requested:  1.00D-06
          Convergence on density requested:  1.00D-05
          Convergence on gradient requested:  5.00D-04

              XC Information
              --------------
                         B3LYP Method XC Potential
                     Hartree-Fock (Exact) Exchange  0.200          
                        Slater Exchange Functional  0.800 local    
                    Becke 1988 Exchange Functional  0.720 non-local
              Lee-Yang-Parr Correlation Functional  0.810          
                  VWN I RPA Correlation Functional  0.190 local    

             Grid Information
             ----------------
          Grid used for XC integration:  fine      
          Radial quadrature: Mura-Knowles        
          Angular quadrature: Lebedev. 
          Tag              B.-S. Rad. Rad. Pts. Rad. Cut. Ang. Pts.
          ---              ---------- --------- --------- ---------
          C                   0.70       70          10.0       590
          H                   0.35       60          11.0       590
          Grid pruning is: on 
          Number of quadrature shells:   320
          Spatial weights used:  Erf1

          Convergence Information
          -----------------------
          Convergence aids based upon iterative change in 
          total energy or number of iterations. 
          Levelshifting, if invoked, occurs when the 
          HOMO/LUMO gap drops below (HL_TOL):  1.00D-02
          DIIS, if invoked, will attempt to extrapolate 
          using up to (NFOCK): 10 stored Fock matrices.

                    Damping( 0%)  Levelshifting(0.5)       DIIS
                  --------------- ------------------- ---------------
          dE  on:    start            ASAP                start   
          dE off:    2 iters        *** iters           *** iters 


      Screening Tolerance Information
      -------------------------------
          Density screening/tol_rho:  1.00D-10
          AO Gaussian exp screening on grid/accAOfunc:  14
          CD Gaussian exp screening on grid/accCDfunc:  20
          XC Gaussian exp screening on grid/accXCfunc:  20
          Schwarz screening/accCoul:  1.00D-08



                            NWChem DFT Gradient Module
                            --------------------------


                               Molecule conformer 0



  charge          =   0.00
  wavefunction    = closed shell

  Using symmetry


                         DFT ENERGY GRADIENTS

    atom               coordinates                        gradient
                 x          y          z           x          y          z
   1 C       0.000000  -2.246425   0.426487    0.000000  -0.038527  -0.015739
   2 C       1.553235   0.000000  -0.406182    0.012959   0.000000   0.010014
   3 C      -1.553235   0.000000  -0.406182   -0.012959   0.000000   0.010014
   4 C       0.000000   2.246425   0.426487    0.000000   0.038527  -0.015739
   5 H       0.000000  -2.670711   2.383876    0.000000   0.009648  -0.015169
   6 H       0.000000  -3.757984  -0.851189    0.000000   0.024677   0.010394
   7 H       2.281216   0.000000  -2.276645   -0.010983   0.000000   0.010501
   8 H      -2.281216   0.000000  -2.276645    0.010983   0.000000   0.010501
   9 H       0.000000   2.670711   2.383876    0.000000  -0.009648  -0.015169
  10 H       0.000000   3.757984  -0.851189   -0.000000  -0.024677   0.010394

                 ----------------------------------------
                 |  Time  |  1-e(secs)   |  2-e(secs)   |
                 ----------------------------------------
                 |  CPU   |       0.00   |       0.03   |
                 ----------------------------------------
                 |  WALL  |       0.00   |       0.03   |
                 ----------------------------------------
  no constraints, skipping    0.0000000000000000     

  Step       Energy      Delta E   Gmax     Grms     Xrms     Xmax   Walltime
  ---- ---------------- -------- -------- -------- -------- -------- --------
@    1    -156.00324711 -2.4D-02  0.02556  0.00569  0.10092  0.21830     56.3
                                                                    



                                Z-matrix (autoz)
                                -------- 

 Units are Angstrom for bonds and degrees for angles

      Type          Name      I     J     K     L     M      Value     Gradient
      ----------- --------  ----- ----- ----- ----- ----- ---------- ----------
    1 Stretch                  1     2                       1.51092   -0.00067
    2 Stretch                  1     3                       1.51092   -0.00067
    3 Stretch                  1     5                       1.05986   -0.01687
    4 Stretch                  1     6                       1.04735   -0.02556
    5 Stretch                  2     3                       1.64387   -0.00049
    6 Stretch                  2     4                       1.51092   -0.00067
    7 Stretch                  2     7                       1.06213   -0.01377
    8 Stretch                  3     4                       1.51092   -0.00067
    9 Stretch                  3     8                       1.06213   -0.01377
   10 Stretch                  4     9                       1.05986   -0.01687
   11 Stretch                  4    10                       1.04735   -0.02556
   12 Bend                     1     2     3                57.04380   -0.00009
   13 Bend                     1     2     4               103.77070    0.00122
   14 Bend                     1     2     7               117.97449   -0.00173
   15 Bend                     1     3     2                57.04380   -0.00009
   16 Bend                     1     3     4               103.77070    0.00122
   17 Bend                     1     3     8               117.97449   -0.00173
   18 Bend                     2     1     3                65.91239    0.00019
   19 Bend                     2     1     5               116.85175   -0.00127
   20 Bend                     2     1     6               114.36923   -0.00082
   21 Bend                     2     3     4                57.04380   -0.00009
   22 Bend                     2     3     8               111.26592   -0.00117
   23 Bend                     2     4     3                65.91239    0.00019
   24 Bend                     2     4     9               116.85175   -0.00127
   25 Bend                     2     4    10               114.36923   -0.00082
   26 Bend                     3     1     5               116.85175   -0.00127
   27 Bend                     3     1     6               114.36923   -0.00082
   28 Bend                     3     2     4                57.04380   -0.00009
   29 Bend                     3     2     7               111.26592   -0.00117
   30 Bend                     3     4     9               116.85175   -0.00127
   31 Bend                     3     4    10               114.36923   -0.00082
   32 Bend                     4     2     7               117.97449   -0.00173
   33 Bend                     4     3     8               117.97449   -0.00173
   34 Bend                     5     1     6               117.97653    0.00256
   35 Bend                     9     4    10               117.97653    0.00256
   36 Torsion                  1     2     3     4         139.32413    0.00291
   37 Torsion                  1     2     3     8        -110.33794    0.00146
   38 Torsion                  1     2     4     3         -34.26937    0.00215
   39 Torsion                  1     2     4     9          74.89176    0.00112
   40 Torsion                  1     2     4    10        -141.34729    0.00275
   41 Torsion                  1     3     2     4        -139.32413   -0.00291
   42 Torsion                  1     3     2     7         110.33794   -0.00146
   43 Torsion                  1     3     4     2          34.26937   -0.00215
   44 Torsion                  1     3     4     9         -74.89176   -0.00112
   45 Torsion                  1     3     4    10         141.34729   -0.00275
   46 Torsion                  2     1     3     4         -34.26937    0.00215
   47 Torsion                  2     1     3     8          98.34258   -0.00053
   48 Torsion                  2     3     1     5         109.16113   -0.00103
   49 Torsion                  2     3     1     6        -107.07791    0.00061
   50 Torsion                  2     3     4     9        -109.16113    0.00103
   51 Torsion                  2     3     4    10         107.07791   -0.00061
   52 Torsion                  2     4     3     8         -98.34258    0.00053
   53 Torsion                  3     1     2     4          34.26937   -0.00215
   54 Torsion                  3     1     2     7         -98.34258    0.00053
   55 Torsion                  3     2     1     5        -109.16113    0.00103
   56 Torsion                  3     2     1     6         107.07791   -0.00061
   57 Torsion                  3     2     4     9         109.16113   -0.00103
   58 Torsion                  3     2     4    10        -107.07791    0.00061
   59 Torsion                  3     4     2     7          98.34258   -0.00053
   60 Torsion                  4     2     1     5         -74.89176   -0.00112
   61 Torsion                  4     2     1     6         141.34729   -0.00275
   62 Torsion                  4     2     3     8         110.33794   -0.00146
   63 Torsion                  4     3     1     5          74.89176    0.00112
   64 Torsion                  4     3     1     6        -141.34729    0.00275
   65 Torsion                  4     3     2     7        -110.33794    0.00146
   66 Torsion                  5     1     2     7         152.49629    0.00156
   67 Torsion                  5     1     3     8        -152.49629   -0.00156
   68 Torsion                  6     1     2     7           8.73533   -0.00007
   69 Torsion                  6     1     3     8          -8.73533    0.00007
   70 Torsion                  7     2     3     8          -0.00000   -0.00000
   71 Torsion                  7     2     4     9        -152.49629   -0.00156
   72 Torsion                  7     2     4    10          -8.73533    0.00007
   73 Torsion                  8     3     4     9         152.49629    0.00156
   74 Torsion                  8     3     4    10           8.73533   -0.00007

 Restricting large step in mode    1 eval= 2.0D-02 step=-4.7D-01 new=-3.0D-01
  no constraints, skipping    0.0000000000000000     
  no constraints, skipping    0.0000000000000000     
  no constraints, skipping    0.0000000000000000     
  no constraints, skipping    0.0000000000000000     
  no constraints, skipping    0.0000000000000000     
  no constraints, skipping    0.0000000000000000     
  no constraints, skipping    0.0000000000000000     
  no constraints, skipping    0.0000000000000000     

                                 NWChem DFT Module
                                 -----------------


                               Molecule conformer 0




 Summary of "ao basis" -> "ao basis" (spherical)
 ------------------------------------------------------------------------------
       Tag                 Description            Shells   Functions and Types
 ---------------- ------------------------------  ------  ---------------------
 C                           6-311G                  7       13   4s3p
 H                           6-311G                  3        3   3s


      Symmetry analysis of basis
      --------------------------

        a1         29
        a2          6
        b1         16
        b2         19

  Caching 1-el integrals 

            General Information
            -------------------
          SCF calculation type: DFT
          Wavefunction type:  closed shell.
          No. of atoms     :    10
          No. of electrons :    30
           Alpha electrons :    15
            Beta electrons :    15
          Charge           :     0
          Spin multiplicity:     1
          Use of symmetry is: on ; symmetry adaption is: on 
          Maximum number of iterations: ***
          This is a Direct SCF calculation.
          AO basis - number of functions:    70
                     number of shells:    46
          Convergence on energy requested:  1.00D-06
          Convergence on density requested:  1.00D-05
          Convergence on gradient requested:  5.00D-04

              XC Information
              --------------
                         B3LYP Method XC Potential
                     Hartree-Fock (Exact) Exchange  0.200          
                        Slater Exchange Functional  0.800 local    
                    Becke 1988 Exchange Functional  0.720 non-local
              Lee-Yang-Parr Correlation Functional  0.810          
                  VWN I RPA Correlation Functional  0.190 local    

             Grid Information
             ----------------
          Grid used for XC integration:  fine      
          Radial quadrature: Mura-Knowles        
          Angular quadrature: Lebedev. 
          Tag              B.-S. Rad. Rad. Pts. Rad. Cut. Ang. Pts.
          ---              ---------- --------- --------- ---------
          C                   0.70       70          10.0       590
          H                   0.35       60          11.0       590
          Grid pruning is: on 
          Number of quadrature shells:   320
          Spatial weights used:  Erf1

          Convergence Information
          -----------------------
          Convergence aids based upon iterative change in 
          total energy or number of iterations. 
          Levelshifting, if invoked, occurs when the 
          HOMO/LUMO gap drops below (HL_TOL):  1.00D-02
          DIIS, if invoked, will attempt to extrapolate 
          using up to (NFOCK): 10 stored Fock matrices.

                    Damping( 0%)  Levelshifting(0.5)       DIIS
                  --------------- ------------------- ---------------
          dE  on:    start            ASAP                start   
          dE off:    2 iters        *** iters           *** iters 


      Screening Tolerance Information
      -------------------------------
          Density screening/tol_rho:  1.00D-10
          AO Gaussian exp screening on grid/accAOfunc:  14
          CD Gaussian exp screening on grid/accCDfunc:  20
          XC Gaussian exp screening on grid/accXCfunc:  20
          Schwarz screening/accCoul:  1.00D-08

          Performing ZORA calculations
          ----------------------------


      Superposition of Atomic Density Guess
      -------------------------------------

 Sum of atomic energies:        -153.67306699

 Read atomic ZORA corrections from ./C1C2C1C2_mol_4_conformer_0.zora_sf

 Forcing recalculation of ZORA corrections
       Generating atomic ZORA corrections
       ----------------------------------

 In dft_scf:: zora:Knucl= F

 Grid_pts file          = ./C1C2C1C2_mol_4_conformer_0.gridpts.00
 Record size in doubles =  12289        No. of grid_pts per rec  =   3070
 Max. records in memory =      3        Max. recs in file   =     13567


 Wrote atomic ZORA corrections to ./C1C2C1C2_mol_4_conformer_0.zora_sf


 Loading old vectors from job with title :

Molecule conformer 0


      Symmetry analysis of molecular orbitals - initial
      -------------------------------------------------

  Numbering of irreducible representations: 

     1 a1          2 a2          3 b1          4 b2      

  Orbital symmetries:

     1 a1          2 b1          3 b2          4 a1          5 a1      
     6 b2          7 b1          8 a1          9 a1         10 b2      
    11 a1         12 b2         13 a2         14 b1         15 a1      
    16 b1         17 a1         18 a1         19 b2         20 b1      
    21 b2         22 a1         23 b1         24 a2         25 b2      

   Time after variat. SCF:     62.7
   Time prior to 1st pass:     62.7

           Memory utilization after 1st SCF pass: 
           Heap Space remaining (MW):      131.03           131029062
          Stack Space remaining (MW):      131.06           131061508

   convergence    iter        energy       DeltaE   RMS-Dens  Diis-err    time
 ---------------- ----- ----------------- --------- --------- ---------  ------
 d= 0,ls=0.0,diis     1   -156.0080442717 -2.71D+02  1.93D-03  7.03D-03    64.7
 d= 0,ls=0.0,diis     2   -156.0089728480 -9.29D-04  7.34D-04  1.52D-03    66.6
 d= 0,ls=0.0,diis     3   -156.0090818669 -1.09D-04  2.32D-04  7.30D-04    68.0
 d= 0,ls=0.0,diis     4   -156.0091705663 -8.87D-05  5.03D-05  3.94D-06    69.8
 d= 0,ls=0.0,diis     5   -156.0091710038 -4.37D-07  1.56D-05  9.71D-07    71.7
 d= 0,ls=0.0,diis     6   -156.0091711292 -1.25D-07  6.38D-06  1.96D-08    73.5
(nogshift,skip_gshiftAOev,done_Fji)=( 1,F,F)


         Total DFT energy =     -156.009171129233
      One electron energy =     -434.965581984997
           Coulomb energy =      188.195371931167
    Exchange-Corr. energy =      -23.941877017203
 Nuclear repulsion energy =      114.702915941800

       Scaling correction =        0.035068236124

 Numeric. integr. density =       29.999999068824

     Total iterative time =     10.9s



                  Occupations of the irreducible representations
                  ----------------------------------------------

                     irrep           alpha         beta
                     --------     --------     --------
                     a1                7.0          7.0
                     a2                1.0          1.0
                     b1                3.0          3.0
                     b2                4.0          4.0


 center of mass
 --------------
 x =   0.00000000 y =   0.00000000 z =  -0.02902057

 moments of inertia (a.u.)
 ------------------
         196.076248884924           0.000000000000           0.000000000000
           0.000000000000         102.968650280465           0.000000000000
           0.000000000000           0.000000000000         232.073377316802
 Line search: 
     step= 1.00 grad=-8.6D-03 hess= 2.7D-03 energy=   -156.009171 mode=downhill
 new step= 1.62                   predicted energy=   -156.010181
  no constraints, skipping    0.0000000000000000     
  no constraints, skipping    0.0000000000000000     
  no constraints, skipping    0.0000000000000000     
  no constraints, skipping    0.0000000000000000     
  no constraints, skipping    0.0000000000000000     
  no constraints, skipping    0.0000000000000000     
  no constraints, skipping    0.0000000000000000     
  no constraints, skipping    0.0000000000000000     

          --------
          Step   2
          --------


                         Geometry "geometry" -> "geometry"
                         ---------------------------------

 Output coordinates in angstroms (scale by  1.889725989 to convert to a.u.)

  No.       Tag          Charge          X              Y              Z
 ---- ---------------- ---------- -------------- -------------- --------------
    1 C                    6.0000     0.00000000    -1.17096767     0.23588292
    2 C                    6.0000     0.82849878     0.00000000    -0.24745880
    3 C                    6.0000    -0.82849878     0.00000000    -0.24745880
    4 C                    6.0000     0.00000000     1.17096767     0.23588292
    5 H                    1.0000     0.00000000    -1.40081162     1.30203087
    6 H                    1.0000     0.00000000    -2.04408440    -0.42690861
    7 H                    1.0000     1.25373610     0.00000000    -1.24648784
    8 H                    1.0000    -1.25373610     0.00000000    -1.24648784
    9 H                    1.0000     0.00000000     1.40081162     1.30203087
   10 H                    1.0000     0.00000000     2.04408440    -0.42690861

      Atomic Mass 
      ----------- 

      C                 12.000000
      H                  1.007825


 Effective nuclear repulsion energy (a.u.)     114.2763232282

            Nuclear Dipole moment (a.u.) 
            ----------------------------
        X                 Y               Z
 ---------------- ---------------- ----------------
     0.0000000000     0.0000000000    -1.6660611642

      Symmetry information
[...]
(dia2,par1)(k,t,iat1,spin)=(  2,  2,  9,  1)=(     6.37479354,     6.37479354,     1.14733019,     1.14733019) ppm
(dia2,par1)(k,t,iat1,spin)=(  3,  2,  9,  1)=(    -0.73643345,    -0.73643345,     2.30548298,     2.30548298) ppm
(dia2,par1)(k,t,iat1,spin)=(  1,  3,  9,  1)=(    -0.00071203,    -0.00071203,    -0.00093052,    -0.00093052) ppm
(dia2,par1)(k,t,iat1,spin)=(  2,  3,  9,  1)=(    -2.25452881,    -2.25452881,    -0.47446911,    -0.47446911) ppm
(dia2,par1)(k,t,iat1,spin)=(  3,  3,  9,  1)=(    -0.79149857,    -0.79149857,    -2.70440156,    -2.70440156) ppm
 Grid integrated density:      30.000003891162
 Requested integration accuracy:   0.10E-06
dia1(k,t,iat1,ispin)=(  1,  1, 10,  1)=(    18.12691143,    18.12691143) ppm
dia1(k,t,iat1,ispin)=(  1,  2, 10,  1)=(    -0.00155630,    -0.00155630) ppm
dia1(k,t,iat1,ispin)=(  1,  3, 10,  1)=(    -0.00166821,    -0.00166821) ppm
dia1(k,t,iat1,ispin)=(  2,  1, 10,  1)=(    -0.00318537,    -0.00318537) ppm
dia1(k,t,iat1,ispin)=(  2,  2, 10,  1)=(    39.10191891,    39.10191891) ppm
dia1(k,t,iat1,ispin)=(  2,  3, 10,  1)=(    -8.20310294,    -8.20310294) ppm
dia1(k,t,iat1,ispin)=(  3,  1, 10,  1)=(    -0.00052835,    -0.00052835) ppm
dia1(k,t,iat1,ispin)=(  3,  2, 10,  1)=(    -8.09346342,    -8.09346342) ppm
dia1(k,t,iat1,ispin)=(  3,  3, 10,  1)=(    21.84450862,    21.84450862) ppm
(dia2,par1)(k,t,iat1,spin)=(  1,  1, 10,  1)=(     6.00219703,     6.00219703,     1.23567244,     1.23567244) ppm
(dia2,par1)(k,t,iat1,spin)=(  2,  1, 10,  1)=(    -0.00105664,    -0.00105664,     0.00077388,     0.00077388) ppm
(dia2,par1)(k,t,iat1,spin)=(  3,  1, 10,  1)=(    -0.00004045,    -0.00004045,    -0.00140370,    -0.00140370) ppm
(dia2,par1)(k,t,iat1,spin)=(  1,  2, 10,  1)=(    -0.00251741,    -0.00251741,    -0.00015958,    -0.00015958) ppm
(dia2,par1)(k,t,iat1,spin)=(  2,  2, 10,  1)=(     0.04402712,     0.04402712,     0.23835648,     0.23835648) ppm
(dia2,par1)(k,t,iat1,spin)=(  3,  2, 10,  1)=(     2.66437218,     2.66437218,    -0.07202405,    -0.07202405) ppm
(dia2,par1)(k,t,iat1,spin)=(  1,  3, 10,  1)=(     0.00160027,     0.00160027,    -0.00155229,    -0.00155229) ppm
(dia2,par1)(k,t,iat1,spin)=(  2,  3, 10,  1)=(     3.50262363,     3.50262363,    -0.44657792,    -0.44657792) ppm
(dia2,par1)(k,t,iat1,spin)=(  3,  3, 10,  1)=(     5.09817007,     5.09817007,    -3.43620369,    -3.43620369) ppm
 Grid integrated density:      30.000003891162
 Requested integration accuracy:   0.10E-06

 Wrote ZORA NMR data to ./C1C2C1C2_mol_4_conformer_0.zora_nmrcs

(nogshift,skip_gshiftAOev,done_Fji)=( 1,F,T)


         Total DFT energy =     -156.022697214897
      One electron energy =     -437.067753856064
           Coulomb energy =      189.278171508128
    Exchange-Corr. energy =      -23.962455281196
 Nuclear repulsion energy =      115.629843033155

             COSMO energy =        0.099497381080

       Scaling correction =        0.035135875245

 Numeric. integr. density =       30.000001525037

     Total iterative time =     51.5s


                                   COSMO solvation results
                                   -----------------------

                 gas phase energy =      -156.020167272649
                 sol phase energy =      -156.022697214897
 (electrostatic) solvation energy =         0.002529942247 (    1.59 kcal/mol)

 center of mass
 --------------
 x =   0.00000000 y =  -0.00000000 z =  -0.16244865

 moments of inertia (a.u.)
 ------------------
         195.730696737804           0.000000000000           0.000000000000
           0.000000000000         105.241376050942          -0.000000000000
           0.000000000000          -0.000000000000         218.542095104506

            Scalar ZORA NMR Shielding
            -------------------------


          -----------------------------------------
          Chemical Shielding Tensors (GIAO, in ppm)
          -----------------------------------------


 Read ZORA NMR data from ./C1C2C1C2_mol_4_conformer_0.zora_nmrcs

    0 giaofock schwarz done =      88.17%
    0 giaofock schwarz done =      97.87%
                                NWChem CPHF Module
                                ------------------



 solvent parameters
 solvname_short: cdcl3   
 solvname_long:  unknown                            
 dielec:       78.4000
 dielecinf:     1.7769

          ---------------
          -cosmo- solvent
          ---------------
 Cosmo: York-Karplus, doi: 10.1021/jp992097l
 dielectric constant -eps-     =  78.40
 screen = (eps-1)/(eps    )    =   0.98724
 surface charge correction     = lagrangian
 -lineq- algorithm             =   0
 -bem- low  level              =   2
 -bem- from -octahedral-
 gaussian surface charge width =   0.98000
 degree of switching           =   1.00000
 switching function tolerance  =   0.00010
 atomic radii = 
 --------------
    1  6.000  2.000
    2  6.000  2.000
    3  6.000  2.000
    4  6.000  2.000
    5  1.000  1.300
    6  1.000  1.300
    7  1.000  1.300
    8  1.000  1.300
    9  1.000  1.300
   10  1.000  1.300

 solvent accessible surface
 --------------------------

 ---------- ATOMIC COORDINATES (A.U.) ------------ VDWR(ANG.) --
     1    0.00000000   -2.16055940    0.43690815     2.000
     2    1.42632929    0.00000000   -0.76992777     2.000
     3   -1.42632929    0.00000000   -0.76992777     2.000
     4    0.00000000    2.16055940    0.43690815     2.000
     5    0.00000000   -2.34258317    2.48242268     1.300
     6    0.00000000   -3.94829452   -0.56064991     1.300
     7    2.74612470    0.00000000   -2.31240756     1.300
     8   -2.74612470    0.00000000   -2.31240756     1.300
     9    0.00000000    2.34258317    2.48242268     1.300
    10    0.00000000    3.94829452   -0.56064991     1.300
 number of segments per atom =         32
 number of   points per atom =         32
 atom (   nspa,  nppa )
 ----------------------
    1 (     14,     0 )       0
    2 (     16,     0 )       0
    3 (     16,     0 )       0
    4 (     14,     0 )       0
    5 (     16,     0 )       0
    6 (     16,     0 )       0
    7 (     12,     0 )       0
    8 (     12,     0 )       0
    9 (     16,     0 )       0
   10 (     16,     0 )       0
 number of -cosmo- surface points =      148
 molecular surface =     90.016 angstrom**2
 molecular volume  =     51.554 angstrom**3
 G(cav/disp)       =      1.310 kcal/mol
 ...... end of -cosmo- initialization ......


  scftype          =     RHF 
  nclosed          =       15
  nopen            =        0
  variables        =      825
  # of vectors     =        3
  tolerance        = 0.10D-03
  level shift      = 0.00D+00
  max iterations   =       50
  max subspace     =       30

 SCF residual:    1.4155128229020620E-004


Iterative solution of linear equations
  No. of variables      825
  No. of equations        3
  Maximum subspace       30
        Iterations       50
       Convergence  1.0D-04
        Start time    894.7


   iter   nsub   residual    time
   ----  ------  --------  ---------
     1      3    4.48D-01     896.6
     2      6    7.68D-03     899.2
     3      9    5.03D-04     901.2
     4     12    2.81D-05     903.4

 Wrote CPHF data to ./C1C2C1C2_mol_4_conformer_0.shieldcphf

 Calc. par tensor-> zora
      Atom:    1  H 
        Diamagnetic
     22.9269      0.0024     -0.0019
      0.0024     27.4920     -3.8179
     -0.0019     -3.8179     39.4600

        Paramagnetic
      3.9521     -0.0020      0.0006
     -0.0020      3.1403      0.2874
      0.0006      0.2874     -0.8702

        Total Shielding Tensor
     26.8790      0.0005     -0.0013
      0.0005     30.6324     -3.5305
     -0.0013     -3.5305     38.5898

           isotropic =      32.0337
          anisotropy =      11.8449

          Principal Components and Axis System
                 1           2           3
               39.9304     29.2918     26.8790

      1        -0.0001     -0.0000      1.0000
      2        -0.3550      0.9349     -0.0000
      3         0.9349      0.3550      0.0001



      Atom:    2  H 
        Diamagnetic
     24.1425      0.0033     -0.0002
      0.0033     39.1563      5.0646
     -0.0002      5.0646     26.9547

        Paramagnetic
      2.4113     -0.0037     -0.0002
     -0.0037      1.1937     -2.4626
     -0.0002     -2.4626      0.4996

        Total Shielding Tensor
     26.5538     -0.0004     -0.0004
     -0.0004     40.3500      2.6020
     -0.0004      2.6020     27.4543

           isotropic =      31.4527
          anisotropy =      14.1037

          Principal Components and Axis System
                 1           2           3
               40.8552     26.9491     26.5538

      1        -0.0000     -0.0009      1.0000
      2         0.9817     -0.1906     -0.0001
      3         0.1906      0.9817      0.0008



      Atom:    3  H 
        Diamagnetic
     30.8974      0.0017     -8.2031
      0.0017     24.3401     -0.0016
     -8.2031     -0.0016     32.3585

        Paramagnetic
     -0.1285      0.0003      1.5275
      0.0003      4.0258     -0.0002
      1.5275     -0.0002      2.8436

        Total Shielding Tensor
     30.7689      0.0020     -6.6756
      0.0020     28.3659     -0.0018
     -6.6756     -0.0018     35.2021

           isotropic =      31.4456
          anisotropy =      12.8607

          Principal Components and Axis System
                 1           2           3
               40.0194     28.3659     25.9515

      1        -0.5852      0.0001      0.8109
      2        -0.0002      1.0000     -0.0002
      3         0.8109      0.0003      0.5852



      Atom:    4  H 
        Diamagnetic
     30.8758     -0.0010      8.2061
     -0.0010     24.3149     -0.0008
      8.2061     -0.0008     32.3382

        Paramagnetic
     -0.1224     -0.0007     -1.5277
     -0.0007      4.0427     -0.0011
     -1.5277     -0.0011      2.8382

        Total Shielding Tensor
     30.7534     -0.0017      6.6784
     -0.0017     28.3576     -0.0019
      6.6784     -0.0019     35.1764

           isotropic =      31.4291
          anisotropy =      12.8563

          Principal Components and Axis System
                 1           2           3
               40.0000     28.3576     25.9298

      1         0.5855      0.0000      0.8107
      2        -0.0002      1.0000      0.0001
      3         0.8107      0.0002     -0.5855



      Atom:    5  H 
        Diamagnetic
     22.9105     -0.0023     -0.0023
     -0.0023     27.4817      3.8193
     -0.0023      3.8193     39.4452

        Paramagnetic
      3.9505      0.0022      0.0023
      0.0022      3.1406     -0.2874
      0.0023     -0.2874     -0.8795

        Total Shielding Tensor
     26.8611     -0.0002      0.0000
     -0.0002     30.6222      3.5319
      0.0000      3.5319     38.5657

           isotropic =      32.0163
          anisotropy =      11.8389

          Principal Components and Axis System
                 1           2           3
               39.9089     29.2790     26.8611

      1        -0.0000     -0.0001      1.0000
      2         0.3555      0.9347      0.0001
      3         0.9347     -0.3555     -0.0000



      Atom:    6  H 
        Diamagnetic
     24.1291     -0.0042     -0.0003
     -0.0042     39.1459     -5.0648
     -0.0003     -5.0648     26.9427

        Paramagnetic
      2.4026      0.0049     -0.0004
      0.0049      1.1891      2.4658
     -0.0004      2.4658      0.4936

        Total Shielding Tensor
     26.5317      0.0007     -0.0008
      0.0007     40.3350     -2.5990
     -0.0008     -2.5990     27.4363

           isotropic =      31.4343
          anisotropy =      14.1070

          Principal Components and Axis System
                 1           2           3
               40.8390     26.9323     26.5317

      1         0.0001     -0.0015      1.0000
      2         0.9817      0.1904      0.0002
      3        -0.1904      0.9817      0.0015




 Task  times  cpu:       72.1s     wall:       72.8s


                                NWChem Input Module
                                -------------------


 Summary of allocated global arrays
-----------------------------------
  array 0 => double precision sf 1(70,70),  handle: -987 
  array 1 => double precision sf 1(70,70),  handle: -986 
  array 2 => double precision sf 1(70,70),  handle: -985 
  array 3 => double precision sf 1(70,70),  handle: -984 
  array 4 => double precision sf 1(70,70),  handle: -983 
  array 5 => double precision sf 1(70,70),  handle: -982 
  array 6 => double precision sf 1(70,70),  handle: -981 
  array 7 => double precision sf 1(70,70),  handle: -980 
  array 8 => double precision sf 1(70,70),  handle: -979 
  array 9 => double precision sf 1(70,70),  handle: -978 
  array 10 => double precision sf 1(70,70),  handle: -977 
  array 11 => double precision sf 1(70,70),  handle: -976 
  array 12 => double precision sf 1(70,70),  handle: -975 
  array 13 => double precision sf 1(70,70),  handle: -974 
  array 14 => double precision sf 1(70,70),  handle: -973 
  array 15 => double precision sf 1(70,70),  handle: -972 
  array 16 => double precision sf 1(70,70),  handle: -971 
  array 17 => double precision sf 1(70,70),  handle: -970 
  array 18 => double precision sf 1(70,70),  handle: -969 
  array 19 => double precision sf 1(70,70),  handle: -968 
  array 20 => double precision sf 1(70,70),  handle: -967 
  array 21 => double precision sf 1(70,70),  handle: -966 
  array 22 => double precision sf 1(70,70),  handle: -965 
  array 23 => double precision sf 1(70,70),  handle: -964 
  array 24 => double precision sf 1(70,70),  handle: -963 
  array 25 => double precision sf 1(70,70),  handle: -962 
  array 26 => double precision sf 1(70,70),  handle: -961 
  array 27 => double precision sf 1(70,70),  handle: -960 
  array 28 => double precision sf 1(70,70),  handle: -959 
  array 29 => double precision sf 1(70,70),  handle: -958 
  array 30 => double precision sf 1(70,70),  handle: -957 
  array 31 => double precision sf 1(70,70),  handle: -956 
  array 32 => double precision sf 1(70,70),  handle: -955 
  array 33 => double precision sf 1(70,70),  handle: -954 
  array 34 => double precision sf 1(70,70),  handle: -953 
  array 35 => double precision sf 1(70,70),  handle: -952 
  array 36 => double precision sf 1(70,70),  handle: -951 
  array 37 => double precision sf 1(70,70),  handle: -950 
  array 38 => double precision sf 1(70,70),  handle: -949 
  array 39 => double precision sf 1(70,70),  handle: -948 
  array 40 => double precision sf 1(70,70),  handle: -947 
  array 41 => double precision sf 1(70,70),  handle: -946 
  array 42 => double precision sf 1(70,70),  handle: -945 
  array 43 => double precision sf 1(70,70),  handle: -944 
  array 44 => double precision sf 1(70,70),  handle: -943 
  array 45 => double precision sf 1(70,70),  handle: -942 
  array 46 => double precision sf 1(70,70),  handle: -941 
  array 47 => double precision sf 1(70,70),  handle: -940 
  array 48 => double precision sf 1(70,70),  handle: -939 
  array 49 => double precision sf 1(70,70),  handle: -938 
  array 50 => double precision sf 1(70,70),  handle: -937 



                         GA Statistics for process    0
                         ------------------------------

       create   destroy   get      put      acc     scatter   gather  read&inc
calls: 9188     8822     2.55e+05 5.41e+04 8.12e+04   60        0     6688     
number of processes/call 0.00e+00 0.00e+00 0.00e+00 0.00e+00 0.00e+00
bytes total:             3.60e+08 5.51e+07 2.85e+08 3.36e+02 0.00e+00 5.35e+04
bytes remote:            3.17e+08 4.52e+07 2.62e+08 -1.68e+02 0.00e+00 0.00e+00
Max memory consumed for GA by this process: 580576 bytes

MA_summarize_allocated_blocks: starting scan ...
MA_summarize_allocated_blocks: scan completed: 0 heap blocks, 0 stack blocks
MA usage statistics:

	allocation statistics:
					      heap	     stack
					      ----	     -----
	current number of blocks	         0	         0
	maximum number of blocks	        66	        59
	current total bytes		         0	         0
	maximum total bytes		   2004840	  27319096
	maximum total K-bytes		      2005	     27320
	maximum total M-bytes		         3	        28


                                     CITATION
                                     --------
                Please cite the following reference when publishing
                           results obtained with NWChem:

          E. Apr, E. J. Bylaska, W. A. de Jong, N. Govind, K. Kowalski,
       T. P. Straatsma, M. Valiev, H. J. J. van Dam, Y. Alexeev, J. Anchell,
       V. Anisimov, F. W. Aquino, R. Atta-Fynn, J. Autschbach, N. P. Bauman,
     J. C. Becca, D. E. Bernholdt, K. Bhaskaran-Nair, S. Bogatko, P. Borowski,
        J. Boschen, J. Brabec, A. Bruner, E. Caut, Y. Chen, G. N. Chuev,
      C. J. Cramer, J. Daily, M. J. O. Deegan, T. H. Dunning Jr., M. Dupuis,
   K. G. Dyall, G. I. Fann, S. A. Fischer, A. Fonari, H. Frchtl, L. Gagliardi,
      J. Garza, N. Gawande, S. Ghosh, K. Glaesemann, A. W. Gtz, J. Hammond,
       V. Helms, E. D. Hermes, K. Hirao, S. Hirata, M. Jacquelin, L. Jensen,
   B. G. Johnson, H. Jnsson, R. A. Kendall, M. Klemm, R. Kobayashi, V. Konkov,
      S. Krishnamoorthy, M. Krishnan, Z. Lin, R. D. Lins, R. J. Littlefield,
      A. J. Logsdail, K. Lopata, W. Ma, A. V. Marenich, J. Martin del Campo,
   D. Mejia-Rodriguez, J. E. Moore, J. M. Mullin, T. Nakajima, D. R. Nascimento,
    J. A. Nichols, P. J. Nichols, J. Nieplocha, A. Otero-de-la-Roza, B. Palmer,
    A. Panyala, T. Pirojsirikul, B. Peng, R. Peverati, J. Pittner, L. Pollack,
   R. M. Richard, P. Sadayappan, G. C. Schatz, W. A. Shelton, D. W. Silverstein,
   D. M. A. Smith, T. A. Soares, D. Song, M. Swart, H. L. Taylor, G. S. Thomas,
            V. Tipparaju, D. G. Truhlar, K. Tsemekhman, T. Van Voorhis,
     . Vzquez-Mayagoitia, P. Verma, O. Villa, A. Vishnu, K. D. Vogiatzis,
        D. Wang, J. H. Weare, M. J. Williamson, T. L. Windus, K. Woliski,
        A. T. Wong, Q. Wu, C. Yang, Q. Yu, M. Zacharias, Z. Zhang, Y. Zhao,
                                and R. J. Harrison
                        "NWChem: Past, present, and future
                         J. Chem. Phys. 152, 184102 (2020)
                               doi:10.1063/5.0004997

                                      AUTHORS
                                      -------
     E. Apra, E. J. Bylaska, N. Govind, K. Kowalski, M. Valiev, W. A. de Jong,
      T. P. Straatsma, H. J. J. van Dam, D. Wang, T. L. Windus, N. P. Bauman,
       A. Panyala, J. Hammond, J. Autschbach, K. Bhaskaran-Nair, J. Brabec,
    K. Lopata, S. A. Fischer, S. Krishnamoorthy, M. Jacquelin, W. Ma, M. Klemm,
       O. Villa, Y. Chen, V. Anisimov, F. Aquino, S. Hirata, M. T. Hackler,
           Eric Hermes, L. Jensen, J. E. Moore, J. C. Becca, V. Konjkov,
            D. Mejia-Rodriguez, T. Risthaus, M. Malagoli, A. Marenich,
   A. Otero-de-la-Roza, J. Mullin, P. Nichols, R. Peverati, J. Pittner, Y. Zhao,
        P.-D. Fan, A. Fonari, M. J. Williamson, R. J. Harrison, J. R. Rehr,
      M. Dupuis, D. Silverstein, D. M. A. Smith, J. Nieplocha, V. Tipparaju,
      M. Krishnan, B. E. Van Kuiken, A. Vazquez-Mayagoitia, M. Swart, Q. Wu,
   T. Van Voorhis, A. A. Auer, M. Nooijen, L. D. Crosby, E. Brown, G. Cisneros,
     G. I. Fann, H. Fruchtl, J. Garza, K. Hirao, R. A. Kendall, J. A. Nichols,
       K. Tsemekhman, K. Wolinski, J. Anchell, D. E. Bernholdt, P. Borowski,
       T. Clark, D. Clerc, H. Dachsel, M. J. O. Deegan, K. Dyall, D. Elwood,
      E. Glendening, M. Gutowski, A. C. Hess, J. Jaffe, B. G. Johnson, J. Ju,
        R. Kobayashi, R. Kutteh, Z. Lin, R. Littlefield, X. Long, B. Meng,
      T. Nakajima, S. Niu, L. Pollack, M. Rosing, K. Glaesemann, G. Sandrone,
      M. Stave, H. Taylor, G. Thomas, J. H. van Lenthe, A. T. Wong, Z. Zhang.

 Total times  cpu:      892.2s     wall:      903.7s
