 argument  1 = C1C2C1C2_mol_1_conformer_0.nw



============================== echo of input deck ==============================
start

title "Molecule conformer 0"

memory total 4000 mb

echo
geometry units angstroms
   C     -1.2603     0.2556    -0.0065
   C      0.0187     0.0375     0.7700
   C     -0.0146    -0.1650    -0.7532
   C      1.2416     0.3271    -0.0707
   H     -2.0227    -0.5429     0.1166
   H     -1.5258     1.3245    -0.1427
   H      0.0597    -0.9624     1.2563
   H      0.0113    -1.2574    -0.9628
   H      1.4384     1.4092    -0.2188
   H      2.0537    -0.4264     0.0118
end


basis spherical
* library 6-311G
end

driver
  maxiter 500
  xyz final
end

relativistic
  zora on
  zora:cutoff_NMR 1d-8
  zora:cutoff 1d-30
end

dft
  direct
  grid fine
  xc B3LYP
  mult 1
  maxiter 1500
  noprint "final vectors analysis" multipole
end

task dft optimize

task dft freq

property
  shielding 6 5 6 7 8 9 10
end

cosmo
   solvent cdcl3
end

task dft property
================================================================================


                                         
                                         


             Northwest Computational Chemistry Package (NWChem) 7.0.2
             --------------------------------------------------------


                    Environmental Molecular Sciences Laboratory
                       Pacific Northwest National Laboratory
                                Richland, WA 99352

                              Copyright (c) 1994-2020
                       Pacific Northwest National Laboratory
                            Battelle Memorial Institute

             NWChem is an open-source computational chemistry package
                        distributed under the terms of the
                      Educational Community License (ECL) 2.0
             A copy of the license is included with this distribution
                              in the LICENSE.TXT file

                                  ACKNOWLEDGMENT
                                  --------------

            This software and its documentation were developed at the
            EMSL at Pacific Northwest National Laboratory, a multiprogram
            national laboratory, operated for the U.S. Department of Energy
            by Battelle under Contract Number DE-AC05-76RL01830. Support
            for this work was provided by the Department of Energy Office
            of Biological and Environmental Research, Office of Basic
            Energy Sciences, and the Office of Advanced Scientific Computing.


           Job information
           ---------------

    hostname        = ponder
    program         = nwchem
    date            = Sat Aug  3 13:43:10 2024

    compiled        = Sat_Apr_09_17:12:10_2022
    source          = /build/nwchem-f1f4gx/nwchem-7.0.2/build-openmpi
    nwchem branch   = 7.0.2
    nwchem revision = N/A
    ga revision     = 5.8.1
    use scalapack   = T
    input           = C1C2C1C2_mol_1_conformer_0.nw
    prefix          = C1C2C1C2_mol_1_conformer_0.
    data base       = ./C1C2C1C2_mol_1_conformer_0.db
    status          = startup
    nproc           =       40
    time left       =     -1s



           Memory information
           ------------------

    heap     =  131071998 doubles =   1000.0 Mbytes
    stack    =  131071995 doubles =   1000.0 Mbytes
    global   =  262144000 doubles =   2000.0 Mbytes (distinct from heap & stack)
    total    =  524287993 doubles =   4000.0 Mbytes
    verify   = yes
    hardfail = no 


           Directory information
           ---------------------

  0 permanent = .
  0 scratch   = .




                                NWChem Input Module
                                -------------------


                               Molecule conformer 0
                               --------------------

 Scaling coordinates for geometry "geometry" by  1.889725989
 (inverse scale =  0.529177249)

 C2V symmetry detected

          ------
          auto-z
          ------
  no constraints, skipping    0.0000000000000000     
  no constraints, skipping    0.0000000000000000     


                             Geometry "geometry" -> ""
                             -------------------------

 Output coordinates in angstroms (scale by  1.889725989 to convert to a.u.)

  No.       Tag          Charge          X              Y              Z
 ---- ---------------- ---------- -------------- -------------- --------------
    1 C                    6.0000     0.00000000    -1.25187235     0.21748087
    2 C                    6.0000     0.76848119     0.00000000    -0.14089737
    3 C                    6.0000    -0.76848119     0.00000000    -0.14089737
    4 C                    6.0000     0.00000000     1.25187235     0.21748087
    5 H                    1.0000     0.00000000    -2.03970539    -0.56569301
    6 H                    1.0000     0.00000000    -1.48319309     1.30287794
    7 H                    1.0000     1.11957272     0.00000000    -1.19668592
    8 H                    1.0000    -1.11957272     0.00000000    -1.19668592
    9 H                    1.0000     0.00000000     1.48319309     1.30287794
   10 H                    1.0000     0.00000000     2.03970539    -0.56569301

      Atomic Mass 
      ----------- 

      C                 12.000000
      H                  1.007825


 Effective nuclear repulsion energy (a.u.)     114.6829863093

            Nuclear Dipole moment (a.u.) 
            ----------------------------
        X                 Y               Z
 ---------------- ---------------- ----------------
     0.0000000000    -0.0000000000     0.0000000000

      Symmetry information
      --------------------

 Group name             C2v       
 Group number             16
 Group order               4
 No. of unique centers     5

      Symmetry unique atoms

     1    2    5    6    7



                                Z-matrix (autoz)
                                -------- 

 Units are Angstrom for bonds and degrees for angles

      Type          Name      I     J     K     L     M      Value
      ----------- --------  ----- ----- ----- ----- ----- ----------
    1 Stretch                  1     2                       1.51201
    2 Stretch                  1     3                       1.51201
    3 Stretch                  1     5                       1.11087
    4 Stretch                  1     6                       1.10977
    5 Stretch                  2     3                       1.53696
    6 Stretch                  2     4                       1.51201
    7 Stretch                  2     7                       1.11263
    8 Stretch                  3     4                       1.51201
    9 Stretch                  3     8                       1.11263
   10 Stretch                  4     9                       1.10977
   11 Stretch                  4    10                       1.11087
   12 Bend                     1     2     3                59.45264
   13 Bend                     1     2     4               111.77763
   14 Bend                     1     2     7               112.66171
   15 Bend                     1     3     2                59.45264
   16 Bend                     1     3     4               111.77763
   17 Bend                     1     3     8               112.66171
   18 Bend                     2     1     3                61.09473
   19 Bend                     2     1     5               114.83978
   20 Bend                     2     1     6               113.85306
   21 Bend                     2     3     4                59.45264
   22 Bend                     2     3     8               108.39401
   23 Bend                     2     4     3                61.09473
   24 Bend                     2     4     9               113.85306
   25 Bend                     2     4    10               114.83978
   26 Bend                     3     1     5               114.83978
   27 Bend                     3     1     6               113.85306
   28 Bend                     3     2     4                59.45264
   29 Bend                     3     2     7               108.39401
   30 Bend                     3     4     9               113.85306
   31 Bend                     3     4    10               114.83978
   32 Bend                     4     2     7               112.66171
   33 Bend                     4     3     8               112.66171
   34 Bend                     5     1     6               122.79915
   35 Bend                     9     4    10               122.79915
   36 Torsion                  1     2     3     4         148.04994
   37 Torsion                  1     2     3     8        -105.97503
   38 Torsion                  1     2     4     3         -29.39053
   39 Torsion                  1     2     4     9          75.73556
   40 Torsion                  1     2     4    10        -135.24466
   41 Torsion                  1     3     2     4        -148.04994
   42 Torsion                  1     3     2     7         105.97503
   43 Torsion                  1     3     4     2          29.39053
   44 Torsion                  1     3     4     9         -75.73556
   45 Torsion                  1     3     4    10         135.24466
   46 Torsion                  2     1     3     4         -29.39053
   47 Torsion                  2     1     3     8          98.66472
   48 Torsion                  2     3     1     5        -105.85413
   49 Torsion                  2     3     1     6         105.12610
   50 Torsion                  2     3     4     9        -105.12610
   51 Torsion                  2     3     4    10         105.85413
   52 Torsion                  2     4     3     8         -98.66472
   53 Torsion                  3     1     2     4          29.39053
   54 Torsion                  3     1     2     7         -98.66472
   55 Torsion                  3     2     1     5         105.85413
   56 Torsion                  3     2     1     6        -105.12610
   57 Torsion                  3     2     4     9         105.12610
   58 Torsion                  3     2     4    10        -105.85413
   59 Torsion                  3     4     2     7          98.66472
   60 Torsion                  4     2     1     5         135.24466
   61 Torsion                  4     2     1     6         -75.73556
   62 Torsion                  4     2     3     8         105.97503
   63 Torsion                  4     3     1     5        -135.24466
   64 Torsion                  4     3     1     6          75.73556
   65 Torsion                  4     3     2     7        -105.97503
   66 Torsion                  5     1     2     7           7.18941
   67 Torsion                  5     1     3     8          -7.18941
   68 Torsion                  6     1     2     7         156.20918
   69 Torsion                  6     1     3     8        -156.20918
   70 Torsion                  7     2     3     8          -0.00000
   71 Torsion                  7     2     4     9        -156.20918
   72 Torsion                  7     2     4    10          -7.18941
   73 Torsion                  8     3     4     9         156.20918
   74 Torsion                  8     3     4    10           7.18941


            XYZ format geometry
            -------------------
    10
 geometry
 C                     0.00000000    -1.25187235     0.21748087
 C                     0.76848119     0.00000000    -0.14089737
 C                    -0.76848119     0.00000000    -0.14089737
 C                     0.00000000     1.25187235     0.21748087
 H                     0.00000000    -2.03970539    -0.56569301
 H                     0.00000000    -1.48319309     1.30287794
 H                     1.11957272     0.00000000    -1.19668592
 H                    -1.11957272     0.00000000    -1.19668592
 H                     0.00000000     1.48319309     1.30287794
 H                     0.00000000     2.03970539    -0.56569301

 ==============================================================================
                                internuclear distances
 ------------------------------------------------------------------------------
       center one      |      center two      | atomic units |  angstroms
 ------------------------------------------------------------------------------
    2 C                |   1 C                |     2.85729  |     1.51201
    3 C                |   1 C                |     2.85729  |     1.51201
    3 C                |   2 C                |     2.90444  |     1.53696
    4 C                |   2 C                |     2.85729  |     1.51201
    4 C                |   3 C                |     2.85729  |     1.51201
    5 H                |   1 C                |     2.09925  |     1.11087
    6 H                |   1 C                |     2.09717  |     1.10977
    7 H                |   2 C                |     2.10257  |     1.11263
    8 H                |   3 C                |     2.10257  |     1.11263
    9 H                |   4 C                |     2.09717  |     1.10977
   10 H                |   4 C                |     2.09925  |     1.11087
 ------------------------------------------------------------------------------
                         number of included internuclear distances:         11
 ==============================================================================



 ==============================================================================
                                 internuclear angles
 ------------------------------------------------------------------------------
        center 1       |       center 2       |       center 3       |  degrees
 ------------------------------------------------------------------------------
    2 C                |   1 C                |   3 C                |    61.09
    2 C                |   1 C                |   5 H                |   114.84
    2 C                |   1 C                |   6 H                |   113.85
    3 C                |   1 C                |   5 H                |   114.84
    3 C                |   1 C                |   6 H                |   113.85
    5 H                |   1 C                |   6 H                |   122.80
    2 C                |   1 C                |   3 C                |    61.09
    1 C                |   2 C                |   4 C                |   111.78
    1 C                |   2 C                |   7 H                |   112.66
    2 C                |   4 C                |   3 C                |    61.09
    3 C                |   2 C                |   7 H                |   108.39
    4 C                |   2 C                |   7 H                |   112.66
    3 C                |   1 C                |   2 C                |    61.09
    1 C                |   3 C                |   4 C                |   111.78
    1 C                |   3 C                |   8 H                |   112.66
    3 C                |   4 C                |   2 C                |    61.09
    2 C                |   3 C                |   8 H                |   108.39
    4 C                |   3 C                |   8 H                |   112.66
    2 C                |   4 C                |   3 C                |    61.09
    2 C                |   4 C                |   9 H                |   113.85
    2 C                |   4 C                |  10 H                |   114.84
    3 C                |   4 C                |   9 H                |   113.85
    3 C                |   4 C                |  10 H                |   114.84
    9 H                |   4 C                |  10 H                |   122.80
 ------------------------------------------------------------------------------
                            number of included internuclear angles:         24
 ==============================================================================





 Summary of "ao basis" -> "" (spherical)
 ------------------------------------------------------------------------------
       Tag                 Description            Shells   Functions and Types
 ---------------- ------------------------------  ------  ---------------------
 *                           6-311G                   on all atoms 




                           NWChem Geometry Optimization
                           ----------------------------




                               Molecule conformer 0


  no constraints, skipping    0.0000000000000000     
 maximum gradient threshold         (gmax) =   0.000450
 rms gradient threshold             (grms) =   0.000300
 maximum cartesian step threshold   (xmax) =   0.001800
 rms cartesian step threshold       (xrms) =   0.001200
 fixed trust radius                (trust) =   0.300000
 maximum step size to saddle      (sadstp) =   0.100000
 energy precision                  (eprec) =   5.0D-06
 maximum number of steps          (nptopt) =  500
 initial hessian option           (inhess) =    0
 line search option               (linopt) =    1
 hessian update option            (modupd) =    1
 saddle point option              (modsad) =    0
 initial eigen-mode to follow     (moddir) =    0
 initial variable to follow       (vardir) =    0
 follow first negative mode     (firstneg) =    T
 apply conjugacy                    (opcg) =    F
 source of zmatrix                         =   autoz   


          -------------------
          Energy Minimization
          -------------------


 Names of Z-matrix variables 
    1              2              3              4              5         
    6              7              8              9             10         
   11             12             13             14             15         
   16             17             18             19             20         
   21             22             23             24             25         
   26             27             28             29             30         
   31             32             33             34             35         
   36             37             38             39             40         
   41             42             43             44             45         
   46             47             48             49             50         
   51             52             53             54             55         
   56             57             58             59             60         
   61             62             63             64             65         
   66             67             68             69             70         
   71             72             73             74         

 Variables with the same non-blank name are constrained to be equal


 Using diagonal initial Hessian 
 Scaling for Hessian diagonals: bonds = 1.00  angles = 0.25  torsions = 0.10

          --------
          Step   0
          --------


                         Geometry "geometry" -> "geometry"
                         ---------------------------------

 Output coordinates in angstroms (scale by  1.889725989 to convert to a.u.)

  No.       Tag          Charge          X              Y              Z
 ---- ---------------- ---------- -------------- -------------- --------------
    1 C                    6.0000     0.00000000    -1.25187235     0.21748087
    2 C                    6.0000     0.76848119     0.00000000    -0.14089737
    3 C                    6.0000    -0.76848119     0.00000000    -0.14089737
    4 C                    6.0000     0.00000000     1.25187235     0.21748087
    5 H                    1.0000     0.00000000    -2.03970539    -0.56569301
    6 H                    1.0000     0.00000000    -1.48319309     1.30287794
    7 H                    1.0000     1.11957272     0.00000000    -1.19668592
    8 H                    1.0000    -1.11957272     0.00000000    -1.19668592
    9 H                    1.0000     0.00000000     1.48319309     1.30287794
   10 H                    1.0000     0.00000000     2.03970539    -0.56569301

      Atomic Mass 
      ----------- 

      C                 12.000000
      H                  1.007825


 Effective nuclear repulsion energy (a.u.)     114.6829863093

            Nuclear Dipole moment (a.u.) 
            ----------------------------
        X                 Y               Z
 ---------------- ---------------- ----------------
     0.0000000000    -0.0000000000     0.0000000000

      Symmetry information
      --------------------

 Group name             C2v       
 Group number             16
 Group order               4
 No. of unique centers     5

      Symmetry unique atoms

     1    2    5    6    7


                                 NWChem DFT Module
                                 -----------------


                               Molecule conformer 0


                      Basis "ao basis" -> "ao basis" (spherical)
                      -----
  C (Carbon)
  ----------
            Exponent  Coefficients 
       -------------- ---------------------------------------------------------
  1 S  4.56324000E+03  0.001967
  1 S  6.82024000E+02  0.015231
  1 S  1.54973000E+02  0.076127
  1 S  4.44553000E+01  0.260801
  1 S  1.30290000E+01  0.616462
  1 S  1.82773000E+00  0.221006

  2 S  2.09642000E+01  0.114660
  2 S  4.80331000E+00  0.919999
  2 S  1.45933000E+00 -0.003031

  3 P  2.09642000E+01  0.040249
  3 P  4.80331000E+00  0.237594
  3 P  1.45933000E+00  0.815854

  4 S  4.83456000E-01  1.000000

  5 P  4.83456000E-01  1.000000

  6 S  1.45585000E-01  1.000000

  7 P  1.45585000E-01  1.000000

  H (Hydrogen)
  ------------
            Exponent  Coefficients 
       -------------- ---------------------------------------------------------
  1 S  3.38650000E+01  0.025494
  1 S  5.09479000E+00  0.190373
  1 S  1.15879000E+00  0.852161

  2 S  3.25840000E-01  1.000000

  3 S  1.02741000E-01  1.000000



 Summary of "ao basis" -> "ao basis" (spherical)
 ------------------------------------------------------------------------------
       Tag                 Description            Shells   Functions and Types
 ---------------- ------------------------------  ------  ---------------------
 C                           6-311G                  7       13   4s3p
 H                           6-311G                  3        3   3s




 Summary of "ao basis" -> "ao basis" (spherical)
 ------------------------------------------------------------------------------
       Tag                 Description            Shells   Functions and Types
 ---------------- ------------------------------  ------  ---------------------
 C                           6-311G                  7       13   4s3p
 H                           6-311G                  3        3   3s


      Symmetry analysis of basis
      --------------------------

        a1         29
        a2          6
        b1         16
        b2         19

  Caching 1-el integrals 

            General Information
            -------------------
          SCF calculation type: DFT
          Wavefunction type:  closed shell.
          No. of atoms     :    10
          No. of electrons :    30
           Alpha electrons :    15
            Beta electrons :    15
          Charge           :     0
          Spin multiplicity:     1
          Use of symmetry is: on ; symmetry adaption is: on 
          Maximum number of iterations: ***
          This is a Direct SCF calculation.
          AO basis - number of functions:    70
                     number of shells:    46
          Convergence on energy requested:  1.00D-06
          Convergence on density requested:  1.00D-05
          Convergence on gradient requested:  5.00D-04

              XC Information
              --------------
                         B3LYP Method XC Potential
                     Hartree-Fock (Exact) Exchange  0.200          
                        Slater Exchange Functional  0.800 local    
                    Becke 1988 Exchange Functional  0.720 non-local
              Lee-Yang-Parr Correlation Functional  0.810          
                  VWN I RPA Correlation Functional  0.190 local    

             Grid Information
             ----------------
          Grid used for XC integration:  fine      
          Radial quadrature: Mura-Knowles        
          Angular quadrature: Lebedev. 
          Tag              B.-S. Rad. Rad. Pts. Rad. Cut. Ang. Pts.
          ---              ---------- --------- --------- ---------
          C                   0.70       70          10.0       590
          H                   0.35       60          11.0       590
          Grid pruning is: on 
          Number of quadrature shells:   320
          Spatial weights used:  Erf1

          Convergence Information
          -----------------------
          Convergence aids based upon iterative change in 
          total energy or number of iterations. 
          Levelshifting, if invoked, occurs when the 
          HOMO/LUMO gap drops below (HL_TOL):  1.00D-02
          DIIS, if invoked, will attempt to extrapolate 
          using up to (NFOCK): 10 stored Fock matrices.

                    Damping( 0%)  Levelshifting(0.5)       DIIS
                  --------------- ------------------- ---------------
          dE  on:    start            ASAP                start   
          dE off:    2 iters        *** iters           *** iters 


      Screening Tolerance Information
      -------------------------------
          Density screening/tol_rho:  1.00D-10
          AO Gaussian exp screening on grid/accAOfunc:  14
          CD Gaussian exp screening on grid/accCDfunc:  20
          XC Gaussian exp screening on grid/accXCfunc:  20
          Schwarz screening/accCoul:  1.00D-08

          Performing ZORA calculations
          ----------------------------


      Superposition of Atomic Density Guess
      -------------------------------------

 Sum of atomic energies:        -153.67306699

 Read atomic ZORA corrections from ./C1C2C1C2_mol_1_conformer_0.zora_sf

 dft_zora_read: failed to open./C1C2C1C2_mol_1_conformer_0.zora_sf
 Forcing recalculation of ZORA corrections
       Generating atomic ZORA corrections
       ----------------------------------

 In dft_scf:: zora:Knucl= F

 Grid_pts file          = ./C1C2C1C2_mol_1_conformer_0.gridpts.00
 Record size in doubles =  12289        No. of grid_pts per rec  =   3070
 Max. records in memory =      3        Max. recs in file   =     13588

 Grid integrated density:      29.999985323487
 Requested integration accuracy:   0.10E-06

 Wrote atomic ZORA corrections to ./C1C2C1C2_mol_1_conformer_0.zora_sf


      Superposition of Atomic Density Guess
      -------------------------------------

 Sum of atomic energies:        -153.67306699

      Non-variational initial energy
      ------------------------------

 Total energy =    -156.684358
 1-e energy   =    -431.541623
 2-e energy   =     160.174278
 HOMO         =      -0.249852
 LUMO         =       0.040431


      Symmetry analysis of molecular orbitals - initial
      -------------------------------------------------

  Numbering of irreducible representations: 

     1 a1          2 a2          3 b1          4 b2      

  Orbital symmetries:

     1 a1          2 b2          3 a1          4 b1          5 a1      
     6 b2          7 b1          8 a1          9 a1         10 b2      
    11 a1         12 b2         13 a2         14 b1         15 a1      
    16 b1         17 a1         18 a1         19 b2         20 b1      
    21 a1         22 b2         23 a2         24 b1         25 a1      

   Time after variat. SCF:      5.3
   Time prior to 1st pass:      5.3
 Grid integrated density:      29.999991400873
 Requested integration accuracy:   0.10E-06

           Memory utilization after 1st SCF pass: 
           Heap Space remaining (MW):      131.03           131029062
          Stack Space remaining (MW):      131.06           131061508

   convergence    iter        energy       DeltaE   RMS-Dens  Diis-err    time
 ---------------- ----- ----------------- --------- --------- ---------  ------
 d= 0,ls=0.0,diis     1   -155.9267335474 -2.71D+02  1.44D-02  5.78D-01     7.0
 Grid integrated density:      29.999992471808
 Requested integration accuracy:   0.10E-06
 d= 0,ls=0.0,diis     2   -155.9699399795 -4.32D-02  8.15D-03  6.91D-02     8.5
 Grid integrated density:      29.999992558616
 Requested integration accuracy:   0.10E-06
 d= 0,ls=0.0,diis     3   -155.9734027199 -3.46D-03  2.21D-03  4.34D-02    10.0
 Grid integrated density:      29.999992591128
 Requested integration accuracy:   0.10E-06
 d= 0,ls=0.0,diis     4   -155.9788655374 -5.46D-03  3.99D-04  4.06D-04    11.6
 Grid integrated density:      29.999992614462
 Requested integration accuracy:   0.10E-06
 d= 0,ls=0.0,diis     5   -155.9789066121 -4.11D-05  1.61D-04  7.44D-05    13.5
 Grid integrated density:      29.999992609395
 Requested integration accuracy:   0.10E-06
  Resetting Diis
 d= 0,ls=0.0,diis     6   -155.9789165713 -9.96D-06  4.71D-05  1.37D-06    15.4
 Grid integrated density:      29.999992608772
 Requested integration accuracy:   0.10E-06
 d= 0,ls=0.0,diis     7   -155.9789167918 -2.21D-07  4.37D-06  1.49D-08    16.7
(nogshift,skip_gshiftAOev,done_Fji)=( 1,F,F)


         Total DFT energy =     -155.978916791850
      One electron energy =     -434.797733927273
           Coulomb energy =      188.029108098937
    Exchange-Corr. energy =      -23.893277272828
 Nuclear repulsion energy =      114.682986309314

       Scaling correction =        0.035100368071

 Numeric. integr. density =       29.999992608772

     Total iterative time =     11.6s



                  Occupations of the irreducible representations
                  ----------------------------------------------

                     irrep           alpha         beta
                     --------     --------     --------
                     a1                7.0          7.0
                     a2                1.0          1.0
                     b1                3.0          3.0
                     b2                4.0          4.0


 center of mass
 --------------
 x =   0.00000000 y =  -0.00000000 z =   0.03188103

 moments of inertia (a.u.)
 ------------------
         210.627796080290           0.000000000000           0.000000000000
           0.000000000000          90.167012651017           0.000000000000
           0.000000000000           0.000000000000         239.734494403147

            General Information
            -------------------
          SCF calculation type: DFT
          Wavefunction type:  closed shell.
          No. of atoms     :    10
          No. of electrons :    30
           Alpha electrons :    15
            Beta electrons :    15
          Charge           :     0
          Spin multiplicity:     1
          Use of symmetry is: on ; symmetry adaption is: on 
          Maximum number of iterations: ***
          This is a Direct SCF calculation.
          AO basis - number of functions:    70
                     number of shells:    46
          Convergence on energy requested:  1.00D-06
          Convergence on density requested:  1.00D-05
          Convergence on gradient requested:  5.00D-04

              XC Information
              --------------
                         B3LYP Method XC Potential
                     Hartree-Fock (Exact) Exchange  0.200          
                        Slater Exchange Functional  0.800 local    
                    Becke 1988 Exchange Functional  0.720 non-local
              Lee-Yang-Parr Correlation Functional  0.810          
                  VWN I RPA Correlation Functional  0.190 local    

             Grid Information
             ----------------
          Grid used for XC integration:  fine      
          Radial quadrature: Mura-Knowles        
          Angular quadrature: Lebedev. 
          Tag              B.-S. Rad. Rad. Pts. Rad. Cut. Ang. Pts.
          ---              ---------- --------- --------- ---------
          C                   0.70       70          10.0       590
          H                   0.35       60          11.0       590
          Grid pruning is: on 
          Number of quadrature shells:   320
          Spatial weights used:  Erf1

          Convergence Information
          -----------------------
          Convergence aids based upon iterative change in 
          total energy or number of iterations. 
          Levelshifting, if invoked, occurs when the 
          HOMO/LUMO gap drops below (HL_TOL):  1.00D-02
          DIIS, if invoked, will attempt to extrapolate 
          using up to (NFOCK): 10 stored Fock matrices.

                    Damping( 0%)  Levelshifting(0.5)       DIIS
                  --------------- ------------------- ---------------
          dE  on:    start            ASAP                start   
          dE off:    2 iters        *** iters           *** iters 


      Screening Tolerance Information
      -------------------------------
          Density screening/tol_rho:  1.00D-10
          AO Gaussian exp screening on grid/accAOfunc:  14
          CD Gaussian exp screening on grid/accCDfunc:  20
          XC Gaussian exp screening on grid/accXCfunc:  20
          Schwarz screening/accCoul:  1.00D-08



                            NWChem DFT Gradient Module
                            --------------------------


                               Molecule conformer 0



  charge          =   0.00
  wavefunction    = closed shell

  Using symmetry


                         DFT ENERGY GRADIENTS

    atom               coordinates                        gradient
                 x          y          z           x          y          z
   1 C       0.000000  -2.365696   0.410979    0.000000  -0.026685  -0.044359
   2 C       1.452219   0.000000  -0.266257   -0.046474   0.000000   0.066133
   3 C      -1.452219   0.000000  -0.266257    0.046474  -0.000000   0.066133
   4 C       0.000000   2.365696   0.410979    0.000000   0.026685  -0.044359
   5 H       0.000000  -3.854484  -1.069005    0.000000  -0.009423  -0.020870
   6 H       0.000000  -2.802829   2.462082    0.000000   0.012191   0.019822
   7 H       2.115686   0.000000  -2.261408   -0.008590   0.000000  -0.020726
   8 H      -2.115686   0.000000  -2.261408    0.008590   0.000000  -0.020726
   9 H       0.000000   2.802829   2.462082    0.000000  -0.012191   0.019822
  10 H       0.000000   3.854484  -1.069005   -0.000000   0.009423  -0.020870

                 ----------------------------------------
                 |  Time  |  1-e(secs)   |  2-e(secs)   |
                 ----------------------------------------
                 |  CPU   |       0.00   |       0.03   |
                 ----------------------------------------
                 |  WALL  |       0.00   |       0.03   |
                 ----------------------------------------
  no constraints, skipping    0.0000000000000000     

@ Step       Energy      Delta E   Gmax     Grms     Xrms     Xmax   Walltime
@ ---- ---------------- -------- -------- -------- -------- -------- --------
@    0    -155.97891679  0.0D+00  0.02140  0.00708  0.00000  0.00000     18.5
                                                                    



                                Z-matrix (autoz)
                                -------- 

 Units are Angstrom for bonds and degrees for angles

      Type          Name      I     J     K     L     M      Value     Gradient
      ----------- --------  ----- ----- ----- ----- ----- ---------- ----------
    1 Stretch                  1     2                       1.51201   -0.00495
    2 Stretch                  1     3                       1.51201   -0.00495
    3 Stretch                  1     5                       1.11087    0.02140
    4 Stretch                  1     6                       1.10977    0.01685
    5 Stretch                  2     3                       1.53696   -0.01779
    6 Stretch                  2     4                       1.51201   -0.00495
    7 Stretch                  2     7                       1.11263    0.01696
    8 Stretch                  3     4                       1.51201   -0.00495
    9 Stretch                  3     8                       1.11263    0.01696
   10 Stretch                  4     9                       1.10977    0.01685
   11 Stretch                  4    10                       1.11087    0.02140
   12 Bend                     1     2     3                59.45264    0.00490
   13 Bend                     1     2     4               111.77763    0.01173
   14 Bend                     1     2     7               112.66171   -0.00584
   15 Bend                     1     3     2                59.45264    0.00490
   16 Bend                     1     3     4               111.77763    0.01173
   17 Bend                     1     3     8               112.66171   -0.00584
   18 Bend                     2     1     3                61.09473   -0.00979
   19 Bend                     2     1     5               114.83978    0.00184
   20 Bend                     2     1     6               113.85306   -0.00154
   21 Bend                     2     3     4                59.45264    0.00490
   22 Bend                     2     3     8               108.39401   -0.00426
   23 Bend                     2     4     3                61.09473   -0.00979
   24 Bend                     2     4     9               113.85306   -0.00154
   25 Bend                     2     4    10               114.83978    0.00184
   26 Bend                     3     1     5               114.83978    0.00184
   27 Bend                     3     1     6               113.85306   -0.00154
   28 Bend                     3     2     4                59.45264    0.00490
   29 Bend                     3     2     7               108.39401   -0.00426
   30 Bend                     3     4     9               113.85306   -0.00154
   31 Bend                     3     4    10               114.83978    0.00184
   32 Bend                     4     2     7               112.66171   -0.00584
   33 Bend                     4     3     8               112.66171   -0.00584
   34 Bend                     5     1     6               122.79915    0.00277
   35 Bend                     9     4    10               122.79915    0.00277
   36 Torsion                  1     2     3     4         148.04994    0.00757
   37 Torsion                  1     2     3     8        -105.97503    0.00378
   38 Torsion                  1     2     4     3         -29.39053    0.00257
   39 Torsion                  1     2     4     9          75.73556   -0.00158
   40 Torsion                  1     2     4    10        -135.24466    0.00437
   41 Torsion                  1     3     2     4        -148.04994   -0.00757
   42 Torsion                  1     3     2     7         105.97503   -0.00378
   43 Torsion                  1     3     4     2          29.39053   -0.00257
   44 Torsion                  1     3     4     9         -75.73556    0.00158
   45 Torsion                  1     3     4    10         135.24466   -0.00437
   46 Torsion                  2     1     3     4         -29.39053    0.00257
   47 Torsion                  2     1     3     8          98.66472   -0.00041
   48 Torsion                  2     3     1     5        -105.85413    0.00180
   49 Torsion                  2     3     1     6         105.12610   -0.00415
   50 Torsion                  2     3     4     9        -105.12610    0.00415
   51 Torsion                  2     3     4    10         105.85413   -0.00180
   52 Torsion                  2     4     3     8         -98.66472    0.00041
   53 Torsion                  3     1     2     4          29.39053   -0.00257
   54 Torsion                  3     1     2     7         -98.66472    0.00041
   55 Torsion                  3     2     1     5         105.85413   -0.00180
   56 Torsion                  3     2     1     6        -105.12610    0.00415
   57 Torsion                  3     2     4     9         105.12610   -0.00415
   58 Torsion                  3     2     4    10        -105.85413    0.00180
   59 Torsion                  3     4     2     7          98.66472   -0.00041
   60 Torsion                  4     2     1     5         135.24466   -0.00437
   61 Torsion                  4     2     1     6         -75.73556    0.00158
   62 Torsion                  4     2     3     8         105.97503   -0.00378
   63 Torsion                  4     3     1     5        -135.24466    0.00437
   64 Torsion                  4     3     1     6          75.73556   -0.00158
   65 Torsion                  4     3     2     7        -105.97503    0.00378
   66 Torsion                  5     1     2     7           7.18941   -0.00140
   67 Torsion                  5     1     3     8          -7.18941    0.00140
   68 Torsion                  6     1     2     7         156.20918    0.00455
   69 Torsion                  6     1     3     8        -156.20918   -0.00455
   70 Torsion                  7     2     3     8          -0.00000    0.00000
   71 Torsion                  7     2     4     9        -156.20918   -0.00455
   72 Torsion                  7     2     4    10          -7.18941    0.00140
   73 Torsion                  8     3     4     9         156.20918    0.00455
   74 Torsion                  8     3     4    10           7.18941   -0.00140

 Restricting large step in mode    7 eval= 3.6D-02 step=-4.3D-01 new=-3.0D-01
 Restricting large step in mode   12 eval= 4.3D-02 step=-3.5D-01 new=-3.0D-01
  no constraints, skipping    0.0000000000000000     
  no constraints, skipping    0.0000000000000000     
  no constraints, skipping    0.0000000000000000     
  no constraints, skipping    0.0000000000000000     
  no constraints, skipping    0.0000000000000000     
  no constraints, skipping    0.0000000000000000     
  no constraints, skipping    0.0000000000000000     
  no constraints, skipping    0.0000000000000000     

                                 NWChem DFT Module
                                 -----------------


                               Molecule conformer 0




 Summary of "ao basis" -> "ao basis" (spherical)
 ------------------------------------------------------------------------------
       Tag                 Description            Shells   Functions and Types
 ---------------- ------------------------------  ------  ---------------------
 C                           6-311G                  7       13   4s3p
 H                           6-311G                  3        3   3s


      Symmetry analysis of basis
      --------------------------

        a1         29
        a2          6
        b1         16
        b2         19

  Caching 1-el integrals 

            General Information
            -------------------
          SCF calculation type: DFT
          Wavefunction type:  closed shell.
          No. of atoms     :    10
          No. of electrons :    30
           Alpha electrons :    15
            Beta electrons :    15
          Charge           :     0
          Spin multiplicity:     1
          Use of symmetry is: on ; symmetry adaption is: on 
          Maximum number of iterations: ***
          This is a Direct SCF calculation.
          AO basis - number of functions:    70
                     number of shells:    46
          Convergence on energy requested:  1.00D-06
          Convergence on density requested:  1.00D-05
          Convergence on gradient requested:  5.00D-04

              XC Information
              --------------
                         B3LYP Method XC Potential
                     Hartree-Fock (Exact) Exchange  0.200          
                        Slater Exchange Functional  0.800 local    
                    Becke 1988 Exchange Functional  0.720 non-local
              Lee-Yang-Parr Correlation Functional  0.810          
                  VWN I RPA Correlation Functional  0.190 local    

             Grid Information
             ----------------
          Grid used for XC integration:  fine      
          Radial quadrature: Mura-Knowles        
          Angular quadrature: Lebedev. 
          Tag              B.-S. Rad. Rad. Pts. Rad. Cut. Ang. Pts.
          ---              ---------- --------- --------- ---------
          C                   0.70       70          10.0       590
          H                   0.35       60          11.0       590
          Grid pruning is: on 
          Number of quadrature shells:   320
          Spatial weights used:  Erf1

          Convergence Information
          -----------------------
          Convergence aids based upon iterative change in 
          total energy or number of iterations. 
          Levelshifting, if invoked, occurs when the 
          HOMO/LUMO gap drops below (HL_TOL):  1.00D-02
          DIIS, if invoked, will attempt to extrapolate 
          using up to (NFOCK): 10 stored Fock matrices.

                    Damping( 0%)  Levelshifting(0.5)       DIIS
                  --------------- ------------------- ---------------
          dE  on:    start            ASAP                start   
          dE off:    2 iters        *** iters           *** iters 


      Screening Tolerance Information
      -------------------------------
          Density screening/tol_rho:  1.00D-10
          AO Gaussian exp screening on grid/accAOfunc:  14
          CD Gaussian exp screening on grid/accCDfunc:  20
          XC Gaussian exp screening on grid/accXCfunc:  20
          Schwarz screening/accCoul:  1.00D-08

          Performing ZORA calculations
          ----------------------------


      Superposition of Atomic Density Guess
      -------------------------------------

 Sum of atomic energies:        -153.67306699

 Read atomic ZORA corrections from ./C1C2C1C2_mol_1_conformer_0.zora_sf

 Forcing recalculation of ZORA corrections
       Generating atomic ZORA corrections
       ----------------------------------

 In dft_scf:: zora:Knucl= F

 Grid_pts file          = ./C1C2C1C2_mol_1_conformer_0.gridpts.00
 Record size in doubles =  12289        No. of grid_pts per rec  =   3070
 Max. records in memory =      3        Max. recs in file   =     13588

 Grid integrated density:      29.999992864871
 Requested integration accuracy:   0.10E-06

 Wrote atomic ZORA corrections to ./C1C2C1C2_mol_1_conformer_0.zora_sf


 Loading old vectors from job with title :

Molecule conformer 0


      Symmetry analysis of molecular orbitals - initial
      -------------------------------------------------

  Numbering of irreducible representations: 

     1 a1          2 a2          3 b1          4 b2      

  Orbital symmetries:

     1 b2          2 a1          3 a1          4 b1          5 a1      
     6 b2          7 a1          8 b1          9 a1         10 b2      
    11 b2         12 a1         13 a2         14 b1         15 a1      
    16 a1         17 b1         18 a1         19 b2         20 b1      
    21 b2         22 a1         23 a2         24 b1         25 a1      

   Time after variat. SCF:     25.5
   Time prior to 1st pass:     25.5

           Memory utilization after 1st SCF pass: 
           Heap Space remaining (MW):      131.03           131029062
          Stack Space remaining (MW):      131.06           131061508

   convergence    iter        energy       DeltaE   RMS-Dens  Diis-err    time
 ---------------- ----- ----------------- --------- --------- ---------  ------
 d= 0,ls=0.0,diis     1   -155.9945699088 -2.71D+02  3.37D-03  2.04D-02    27.1
 d= 0,ls=0.0,diis     2   -155.9979057083 -3.34D-03  7.87D-04  1.96D-03    29.1
 d= 0,ls=0.0,diis     3   -155.9979821876 -7.65D-05  3.87D-04  1.51D-03    30.8
 d= 0,ls=0.0,diis     4   -155.9981740059 -1.92D-04  4.13D-05  6.98D-06    33.2
 d= 0,ls=0.0,diis     5   -155.9981745270 -5.21D-07  2.29D-05  2.70D-06    34.9
 d= 0,ls=0.0,diis     6   -155.9981748709 -3.44D-07  5.43D-06  3.96D-08    36.3
(nogshift,skip_gshiftAOev,done_Fji)=( 1,F,F)


         Total DFT energy =     -155.998174870907
      One electron energy =     -435.542708942305
           Coulomb energy =      188.455135847939
    Exchange-Corr. energy =      -23.946371213942
 Nuclear repulsion energy =      115.035769437400

       Scaling correction =        0.035077379614

 Numeric. integr. density =       29.999997211385

     Total iterative time =     10.9s



                  Occupations of the irreducible representations
                  ----------------------------------------------

                     irrep           alpha         beta
                     --------     --------     --------
                     a1                7.0          7.0
                     a2                1.0          1.0
                     b1                3.0          3.0
                     b2                4.0          4.0


 center of mass
 --------------
 x =   0.00000000 y =   0.00000000 z =   0.00504246

 moments of inertia (a.u.)
 ------------------
         202.551160654836           0.000000000000           0.000000000000
           0.000000000000          95.396258331963           0.000000000000
           0.000000000000           0.000000000000         235.876097107376
 Line search: 
     step= 1.00 grad=-2.6D-02 hess= 7.1D-03 energy=   -155.998175 mode=downhill
 new step= 1.87                   predicted energy=   -156.003458
  no constraints, skipping    0.0000000000000000     
  no constraints, skipping    0.0000000000000000     
  no constraints, skipping    0.0000000000000000     
  no constraints, skipping    0.0000000000000000     
  no constraints, skipping    0.0000000000000000     
  no constraints, skipping    0.0000000000000000     
  no constraints, skipping    0.0000000000000000     
  no constraints, skipping    0.0000000000000000     

          --------
          Step   1
          --------


                         Geometry "geometry" -> "geometry"
                         ---------------------------------

 Output coordinates in angstroms (scale by  1.889725989 to convert to a.u.)

  No.       Tag          Charge          X              Y              Z
 ---- ---------------- ---------- -------------- -------------- --------------
    1 C                    6.0000     0.00000000    -1.18873668     0.22571260
    2 C                    6.0000     0.82191179     0.00000000    -0.21497859
    3 C                    6.0000    -0.82191179     0.00000000    -0.21497859
    4 C                    6.0000     0.00000000     1.18873668     0.22571260
    5 H                    1.0000     0.00000000    -1.98863958    -0.45039951
    6 H                    1.0000     0.00000000    -1.41322721     1.26154342
    7 H                    1.0000     1.20711256     0.00000000    -1.20479540
    8 H                    1.0000    -1.20711256     0.00000000    -1.20479540
    9 H                    1.0000     0.00000000     1.41322721     1.26154342
   10 H                    1.0000     0.00000000     1.98863958    -0.45039951

      Atomic Mass 
      ----------- 

      C                 12.000000
      H                  1.007825


 Effective nuclear repulsion energy (a.u.)     115.4185910861

            Nuclear Dipole moment (a.u.) 
            ----------------------------
        X                 Y               Z
 ---------------- ---------------- ----------------
     0.0000000000    -0.0000000000    -1.2443748868

      Symmetry information
      --------------------

 Group name             C2v       
 Group number             16
 Group order               4
 No. of unique centers     5

      Symmetry unique atoms

     1    2    5    6    7


                                 NWChem DFT Module
                                 -----------------


                               Molecule conformer 0




 Summary of "ao basis" -> "ao basis" (spherical)
 ------------------------------------------------------------------------------
       Tag                 Description            Shells   Functions and Types
 ---------------- ------------------------------  ------  ---------------------
 C                           6-311G                  7       13   4s3p
 H                           6-311G                  3        3   3s


      Symmetry analysis of basis
      --------------------------

        a1         29
        a2          6
        b1         16
        b2         19

  Caching 1-el integrals 

            General Information
            -------------------
          SCF calculation type: DFT
          Wavefunction type:  closed shell.
          No. of atoms     :    10
          No. of electrons :    30
           Alpha electrons :    15
            Beta electrons :    15
          Charge           :     0
          Spin multiplicity:     1
          Use of symmetry is: on ; symmetry adaption is: on 
          Maximum number of iterations: ***
          This is a Direct SCF calculation.
          AO basis - number of functions:    70
                     number of shells:    46
          Convergence on energy requested:  1.00D-06
          Convergence on density requested:  1.00D-05
          Convergence on gradient requested:  5.00D-04

              XC Information
              --------------
                         B3LYP Method XC Potential
                     Hartree-Fock (Exact) Exchange  0.200          
                        Slater Exchange Functional  0.800 local    
                    Becke 1988 Exchange Functional  0.720 non-local
              Lee-Yang-Parr Correlation Functional  0.810          
                  VWN I RPA Correlation Functional  0.190 local    

             Grid Information
             ----------------
          Grid used for XC integration:  fine      
          Radial quadrature: Mura-Knowles        
          Angular quadrature: Lebedev. 
          Tag              B.-S. Rad. Rad. Pts. Rad. Cut. Ang. Pts.
          ---              ---------- --------- --------- ---------
          C                   0.70       70          10.0       590
          H                   0.35       60          11.0       590
          Grid pruning is: on 
          Number of quadrature shells:   320
          Spatial weights used:  Erf1

          Convergence Information
          -----------------------
          Convergence aids based upon iterative change in 
          total energy or number of iterations. 
          Levelshifting, if invoked, occurs when the 
          HOMO/LUMO gap drops below (HL_TOL):  1.00D-02
          DIIS, if invoked, will attempt to extrapolate 
          using up to (NFOCK): 10 stored Fock matrices.

                    Damping( 0%)  Levelshifting(0.5)       DIIS
                  --------------- ------------------- ---------------
          dE  on:    start            ASAP                start   
          dE off:    2 iters        *** iters           *** iters 


      Screening Tolerance Information
      -------------------------------
          Density screening/tol_rho:  1.00D-10
          AO Gaussian exp screening on grid/accAOfunc:  14
          CD Gaussian exp screening on grid/accCDfunc:  20
          XC Gaussian exp screening on grid/accXCfunc:  20
          Schwarz screening/accCoul:  1.00D-08

          Performing ZORA calculations
          ----------------------------


      Superposition of Atomic Density Guess
      -------------------------------------

 Sum of atomic energies:        -153.67306699

 Read atomic ZORA corrections from ./C1C2C1C2_mol_1_conformer_0.zora_sf

 Forcing recalculation of ZORA corrections
       Generating atomic ZORA corrections
       ----------------------------------

 In dft_scf:: zora:Knucl= F

 Grid_pts file          = ./C1C2C1C2_mol_1_conformer_0.gridpts.00
 Record size in doubles =  12289        No. of grid_pts per rec  =   3070
 Max. records in memory =      3        Max. recs in file   =     13588


 Wrote atomic ZORA corrections to ./C1C2C1C2_mol_1_conformer_0.zora_sf


 Loading old vectors from job with title :

Molecule conformer 0


      Symmetry analysis of molecular orbitals - initial
      -------------------------------------------------

  Numbering of irreducible representations: 

     1 a1          2 a2          3 b1          4 b2      

  Orbital symmetries:

     1 b2          2 a1          3 a1          4 b1          5 a1      
     6 b2          7 a1          8 b1          9 a1         10 b2      
    11 a1         12 b2         13 a2         14 b1         15 a1      
    16 b1         17 a1         18 a1         19 b2         20 b1      
    21 b2         22 a1         23 b1         24 a2         25 b2      

   Time after variat. SCF:     42.6
   Time prior to 1st pass:     42.6

           Memory utilization after 1st SCF pass: 
           Heap Space remaining (MW):      131.03           131029062
          Stack Space remaining (MW):      131.06           131061508

   convergence    iter        energy       DeltaE   RMS-Dens  Diis-err    time
 ---------------- ----- ----------------- --------- --------- ---------  ------
 d= 0,ls=0.0,diis     1   -156.0006043123 -2.71D+02  2.54D-03  1.49D-02    44.8
 d= 0,ls=0.0,diis     2   -156.0030748652 -2.47D-03  6.41D-04  1.30D-03    46.7
 d= 0,ls=0.0,diis     3   -156.0031281094 -5.32D-05  3.06D-04  9.84D-04    48.4
 d= 0,ls=0.0,diis     4   -156.0032529081 -1.25D-04  3.46D-05  4.57D-06    50.3
 d= 0,ls=0.0,diis     5   -156.0032532940 -3.86D-07  1.62D-05  1.47D-06    52.2
 d= 0,ls=0.0,diis     6   -156.0032534780 -1.84D-07  4.28D-06  3.34D-08    53.9
(nogshift,skip_gshiftAOev,done_Fji)=( 1,F,F)


         Total DFT energy =     -156.003253477955
      One electron energy =     -436.315496993455
           Coulomb energy =      188.889448962523
    Exchange-Corr. energy =      -23.995796533089
 Nuclear repulsion energy =      115.418591086066

       Scaling correction =        0.035057484726

 Numeric. integr. density =       30.000000843181

     Total iterative time =     11.3s



                  Occupations of the irreducible representations
                  ----------------------------------------------

                     irrep           alpha         beta
                     --------     --------     --------
                     a1                7.0          7.0
                     a2                1.0          1.0
                     b1                3.0          3.0
                     b2                4.0          4.0


 center of mass
 --------------
 x =   0.00000000 y =   0.00000000 z =  -0.01873565

 moments of inertia (a.u.)
 ------------------
         195.624193586265           0.000000000000           0.000000000000
           0.000000000000         100.058082724611           0.000000000000
           0.000000000000           0.000000000000         232.337739730147

            General Information
            -------------------
          SCF calculation type: DFT
          Wavefunction type:  closed shell.
          No. of atoms     :    10
          No. of electrons :    30
           Alpha electrons :    15
            Beta electrons :    15
          Charge           :     0
          Spin multiplicity:     1
          Use of symmetry is: on ; symmetry adaption is: on 
          Maximum number of iterations: ***
          This is a Direct SCF calculation.
          AO basis - number of functions:    70
                     number of shells:    46
          Convergence on energy requested:  1.00D-06
          Convergence on density requested:  1.00D-05
          Convergence on gradient requested:  5.00D-04

              XC Information
              --------------
                         B3LYP Method XC Potential
                     Hartree-Fock (Exact) Exchange  0.200          
                        Slater Exchange Functional  0.800 local    
                    Becke 1988 Exchange Functional  0.720 non-local
              Lee-Yang-Parr Correlation Functional  0.810          
                  VWN I RPA Correlation Functional  0.190 local    

             Grid Information
             ----------------
          Grid used for XC integration:  fine      
          Radial quadrature: Mura-Knowles        
          Angular quadrature: Lebedev. 
          Tag              B.-S. Rad. Rad. Pts. Rad. Cut. Ang. Pts.
          ---              ---------- --------- --------- ---------
          C                   0.70       70          10.0       590
          H                   0.35       60          11.0       590
          Grid pruning is: on 
          Number of quadrature shells:   320
          Spatial weights used:  Erf1

          Convergence Information
          -----------------------
          Convergence aids based upon iterative change in 
          total energy or number of iterations. 
          Levelshifting, if invoked, occurs when the 
          HOMO/LUMO gap drops below (HL_TOL):  1.00D-02
          DIIS, if invoked, will attempt to extrapolate 
          using up to (NFOCK): 10 stored Fock matrices.

                    Damping( 0%)  Levelshifting(0.5)       DIIS
                  --------------- ------------------- ---------------
          dE  on:    start            ASAP                start   
          dE off:    2 iters        *** iters           *** iters 


      Screening Tolerance Information
      -------------------------------
          Density screening/tol_rho:  1.00D-10
          AO Gaussian exp screening on grid/accAOfunc:  14
          CD Gaussian exp screening on grid/accCDfunc:  20
          XC Gaussian exp screening on grid/accXCfunc:  20
          Schwarz screening/accCoul:  1.00D-08



                            NWChem DFT Gradient Module
                            --------------------------


                               Molecule conformer 0



  charge          =   0.00
  wavefunction    = closed shell

  Using symmetry


                         DFT ENERGY GRADIENTS

    atom               coordinates                        gradient
                 x          y          z           x          y          z
   1 C       0.000000  -2.246387   0.426535    0.000000  -0.038506  -0.015734
   2 C       1.553188   0.000000  -0.406251    0.012950   0.000000   0.010008
   3 C      -1.553188   0.000000  -0.406251   -0.012950   0.000000   0.010008
   4 C       0.000000   2.246387   0.426535    0.000000   0.038506  -0.015734
   5 H       0.000000  -3.757984  -0.851132    0.000000   0.024672   0.010384
   6 H       0.000000  -2.670612   2.383971    0.000000   0.009644  -0.015156
   7 H       2.281112   0.000000  -2.276733   -0.010987   0.000000   0.010499
   8 H      -2.281112   0.000000  -2.276733    0.010987  -0.000000   0.010499
   9 H       0.000000   2.670612   2.383971   -0.000000  -0.009644  -0.015156
  10 H       0.000000   3.757984  -0.851132   -0.000000  -0.024672   0.010384

                 ----------------------------------------
                 |  Time  |  1-e(secs)   |  2-e(secs)   |
                 ----------------------------------------
                 |  CPU   |       0.00   |       0.03   |
                 ----------------------------------------
                 |  WALL  |       0.00   |       0.03   |
                 ----------------------------------------
  no constraints, skipping    0.0000000000000000     

  Step       Energy      Delta E   Gmax     Grms     Xrms     Xmax   Walltime
  ---- ---------------- -------- -------- -------- -------- -------- --------
@    1    -156.00325348 -2.4D-02  0.02555  0.00568  0.10092  0.21822     55.5
                                                                    



                                Z-matrix (autoz)
                                -------- 

 Units are Angstrom for bonds and degrees for angles

      Type          Name      I     J     K     L     M      Value     Gradient
      ----------- --------  ----- ----- ----- ----- ----- ---------- ----------
    1 Stretch                  1     2                       1.51091   -0.00067
    2 Stretch                  1     3                       1.51091   -0.00067
    3 Stretch                  1     5                       1.04736   -0.02555
    4 Stretch                  1     6                       1.05988   -0.01686
    5 Stretch                  2     3                       1.64382   -0.00050
    6 Stretch                  2     4                       1.51091   -0.00067
    7 Stretch                  2     7                       1.06213   -0.01377
    8 Stretch                  3     4                       1.51091   -0.00067
    9 Stretch                  3     8                       1.06213   -0.01377
   10 Stretch                  4     9                       1.05988   -0.01686
   11 Stretch                  4    10                       1.04736   -0.02555
   12 Bend                     1     2     3                57.04464   -0.00009
   13 Bend                     1     2     4               103.76932    0.00122
   14 Bend                     1     2     7               117.97602   -0.00173
   15 Bend                     1     3     2                57.04464   -0.00009
   16 Bend                     1     3     4               103.76932    0.00122
   17 Bend                     1     3     8               117.97602   -0.00173
   18 Bend                     2     1     3                65.91071    0.00019
   19 Bend                     2     1     5               114.36786   -0.00082
   20 Bend                     2     1     6               116.85277   -0.00127
   21 Bend                     2     3     4                57.04464   -0.00009
   22 Bend                     2     3     8               111.26418   -0.00117
   23 Bend                     2     4     3                65.91071    0.00019
   24 Bend                     2     4     9               116.85277   -0.00127
   25 Bend                     2     4    10               114.36786   -0.00082
   26 Bend                     3     1     5               114.36786   -0.00082
   27 Bend                     3     1     6               116.85277   -0.00127
   28 Bend                     3     2     4                57.04464   -0.00009
   29 Bend                     3     2     7               111.26418   -0.00117
   30 Bend                     3     4     9               116.85277   -0.00127
   31 Bend                     3     4    10               114.36786   -0.00082
   32 Bend                     4     2     7               117.97602   -0.00173
   33 Bend                     4     3     8               117.97602   -0.00173
   34 Bend                     5     1     6               117.97760    0.00256
   35 Bend                     9     4    10               117.97760    0.00256
   36 Torsion                  1     2     3     4         139.31827    0.00291
   37 Torsion                  1     2     3     8        -110.34087    0.00146
   38 Torsion                  1     2     4     3         -34.27416    0.00215
   39 Torsion                  1     2     4     9          74.88721    0.00112
   40 Torsion                  1     2     4    10        -141.35038    0.00275
   41 Torsion                  1     3     2     4        -139.31827   -0.00291
   42 Torsion                  1     3     2     7         110.34087   -0.00146
   43 Torsion                  1     3     4     2          34.27416   -0.00215
   44 Torsion                  1     3     4     9         -74.88721   -0.00112
   45 Torsion                  1     3     4    10         141.35038   -0.00275
   46 Torsion                  2     1     3     4         -34.27416    0.00215
   47 Torsion                  2     1     3     8          98.33987   -0.00054
   48 Torsion                  2     3     1     5        -107.07622    0.00061
   49 Torsion                  2     3     1     6         109.16137   -0.00103
   50 Torsion                  2     3     4     9        -109.16137    0.00103
   51 Torsion                  2     3     4    10         107.07622   -0.00061
   52 Torsion                  2     4     3     8         -98.33987    0.00054
   53 Torsion                  3     1     2     4          34.27416   -0.00215
   54 Torsion                  3     1     2     7         -98.33987    0.00054
   55 Torsion                  3     2     1     5         107.07622   -0.00061
   56 Torsion                  3     2     1     6        -109.16137    0.00103
   57 Torsion                  3     2     4     9         109.16137   -0.00103
   58 Torsion                  3     2     4    10        -107.07622    0.00061
   59 Torsion                  3     4     2     7          98.33987   -0.00054
   60 Torsion                  4     2     1     5         141.35038   -0.00275
   61 Torsion                  4     2     1     6         -74.88721   -0.00112
   62 Torsion                  4     2     3     8         110.34087   -0.00146
   63 Torsion                  4     3     1     5        -141.35038    0.00275
   64 Torsion                  4     3     1     6          74.88721    0.00112
   65 Torsion                  4     3     2     7        -110.34087    0.00146
   66 Torsion                  5     1     2     7           8.73636   -0.00007
   67 Torsion                  5     1     3     8          -8.73636    0.00007
   68 Torsion                  6     1     2     7         152.49876    0.00156
   69 Torsion                  6     1     3     8        -152.49876   -0.00156
   70 Torsion                  7     2     3     8          -0.00000   -0.00000
   71 Torsion                  7     2     4     9        -152.49876   -0.00156
   72 Torsion                  7     2     4    10          -8.73636    0.00007
   73 Torsion                  8     3     4     9         152.49876    0.00156
   74 Torsion                  8     3     4    10           8.73636   -0.00007

 Restricting large step in mode    1 eval= 2.0D-02 step=-4.7D-01 new=-3.0D-01
  no constraints, skipping    0.0000000000000000     
  no constraints, skipping    0.0000000000000000     
  no constraints, skipping    0.0000000000000000     
  no constraints, skipping    0.0000000000000000     
  no constraints, skipping    0.0000000000000000     
  no constraints, skipping    0.0000000000000000     
  no constraints, skipping    0.0000000000000000     
  no constraints, skipping    0.0000000000000000     

                                 NWChem DFT Module
                                 -----------------


                               Molecule conformer 0




 Summary of "ao basis" -> "ao basis" (spherical)
 ------------------------------------------------------------------------------
       Tag                 Description            Shells   Functions and Types
 ---------------- ------------------------------  ------  ---------------------
 C                           6-311G                  7       13   4s3p
 H                           6-311G                  3        3   3s


      Symmetry analysis of basis
      --------------------------

        a1         29
        a2          6
        b1         16
        b2         19

  Caching 1-el integrals 

            General Information
            -------------------
          SCF calculation type: DFT
          Wavefunction type:  closed shell.
          No. of atoms     :    10
          No. of electrons :    30
           Alpha electrons :    15
            Beta electrons :    15
          Charge           :     0
          Spin multiplicity:     1
          Use of symmetry is: on ; symmetry adaption is: on 
          Maximum number of iterations: ***
          This is a Direct SCF calculation.
          AO basis - number of functions:    70
                     number of shells:    46
          Convergence on energy requested:  1.00D-06
          Convergence on density requested:  1.00D-05
          Convergence on gradient requested:  5.00D-04

              XC Information
              --------------
                         B3LYP Method XC Potential
                     Hartree-Fock (Exact) Exchange  0.200          
                        Slater Exchange Functional  0.800 local    
                    Becke 1988 Exchange Functional  0.720 non-local
              Lee-Yang-Parr Correlation Functional  0.810          
                  VWN I RPA Correlation Functional  0.190 local    

             Grid Information
             ----------------
          Grid used for XC integration:  fine      
          Radial quadrature: Mura-Knowles        
          Angular quadrature: Lebedev. 
          Tag              B.-S. Rad. Rad. Pts. Rad. Cut. Ang. Pts.
          ---              ---------- --------- --------- ---------
          C                   0.70       70          10.0       590
          H                   0.35       60          11.0       590
          Grid pruning is: on 
          Number of quadrature shells:   320
          Spatial weights used:  Erf1

          Convergence Information
          -----------------------
          Convergence aids based upon iterative change in 
          total energy or number of iterations. 
          Levelshifting, if invoked, occurs when the 
          HOMO/LUMO gap drops below (HL_TOL):  1.00D-02
          DIIS, if invoked, will attempt to extrapolate 
          using up to (NFOCK): 10 stored Fock matrices.

                    Damping( 0%)  Levelshifting(0.5)       DIIS
                  --------------- ------------------- ---------------
          dE  on:    start            ASAP                start   
          dE off:    2 iters        *** iters           *** iters 


      Screening Tolerance Information
      -------------------------------
          Density screening/tol_rho:  1.00D-10
          AO Gaussian exp screening on grid/accAOfunc:  14
          CD Gaussian exp screening on grid/accCDfunc:  20
          XC Gaussian exp screening on grid/accXCfunc:  20
          Schwarz screening/accCoul:  1.00D-08

          Performing ZORA calculations
          ----------------------------


      Superposition of Atomic Density Guess
      -------------------------------------

 Sum of atomic energies:        -153.67306699

 Read atomic ZORA corrections from ./C1C2C1C2_mol_1_conformer_0.zora_sf

 Forcing recalculation of ZORA corrections
       Generating atomic ZORA corrections
       ----------------------------------

 In dft_scf:: zora:Knucl= F

 Grid_pts file          = ./C1C2C1C2_mol_1_conformer_0.gridpts.00
 Record size in doubles =  12289        No. of grid_pts per rec  =   3070
 Max. records in memory =      3        Max. recs in file   =     13588


 Wrote atomic ZORA corrections to ./C1C2C1C2_mol_1_conformer_0.zora_sf


 Loading old vectors from job with title :

Molecule conformer 0


      Symmetry analysis of molecular orbitals - initial
      -------------------------------------------------

  Numbering of irreducible representations: 

     1 a1          2 a2          3 b1          4 b2      

  Orbital symmetries:

     1 a1          2 b1          3 b2          4 a1          5 a1      
     6 b2          7 b1          8 a1          9 a1         10 b2      
    11 a1         12 b2         13 a2         14 b1         15 a1      
    16 b1         17 a1         18 a1         19 b2         20 b1      
    21 b2         22 a1         23 b1         24 a2         25 b2      

   Time after variat. SCF:     62.1
   Time prior to 1st pass:     62.1

           Memory utilization after 1st SCF pass: 
           Heap Space remaining (MW):      131.03           131029062
          Stack Space remaining (MW):      131.06           131061508

   convergence    iter        energy       DeltaE   RMS-Dens  Diis-err    time
 ---------------- ----- ----------------- --------- --------- ---------  ------
 d= 0,ls=0.0,diis     1   -156.0080483995 -2.71D+02  1.93D-03  7.03D-03    64.2
 d= 0,ls=0.0,diis     2   -156.0089767074 -9.28D-04  7.34D-04  1.52D-03    66.1
 d= 0,ls=0.0,diis     3   -156.0090855726 -1.09D-04  2.32D-04  7.29D-04    68.4
 d= 0,ls=0.0,diis     4   -156.0091742149 -8.86D-05  5.04D-05  3.93D-06    70.4
 d= 0,ls=0.0,diis     5   -156.0091746523 -4.37D-07  1.56D-05  9.70D-07    72.3
 d= 0,ls=0.0,diis     6   -156.0091747776 -1.25D-07  6.39D-06  1.96D-08    74.1
(nogshift,skip_gshiftAOev,done_Fji)=( 1,F,F)


         Total DFT energy =     -156.009174777579
      One electron energy =     -434.967218298879
           Coulomb energy =      188.196200280361
    Exchange-Corr. energy =      -23.941895946997
 Nuclear repulsion energy =      114.703739187935

       Scaling correction =        0.035068228599

 Numeric. integr. density =       29.999999065216

     Total iterative time =     12.1s



                  Occupations of the irreducible representations
                  ----------------------------------------------

                     irrep           alpha         beta
                     --------     --------     --------
                     a1                7.0          7.0
                     a2                1.0          1.0
                     b1                3.0          3.0
                     b2                4.0          4.0


 center of mass
 --------------
 x =   0.00000000 y =   0.00000000 z =  -0.02903044

 moments of inertia (a.u.)
 ------------------
         196.074320487468           0.000000000000           0.000000000000
           0.000000000000         102.968457436450           0.000000000000
           0.000000000000           0.000000000000         232.065041004087
 Line search: 
     step= 1.00 grad=-8.6D-03 hess= 2.6D-03 energy=   -156.009175 mode=downhill
 new step= 1.62                   predicted energy=   -156.010184
  no constraints, skipping    0.0000000000000000     
  no constraints, skipping    0.0000000000000000     
  no constraints, skipping    0.0000000000000000     
  no constraints, skipping    0.0000000000000000     
  no constraints, skipping    0.0000000000000000     
  no constraints, skipping    0.0000000000000000     
  no constraints, skipping    0.0000000000000000     
  no constraints, skipping    0.0000000000000000     

          --------
          Step   2
          --------


                         Geometry "geometry" -> "geometry"
                         ---------------------------------

 Output coordinates in angstroms (scale by  1.889725989 to convert to a.u.)

  No.       Tag          Charge          X              Y              Z
 ---- ---------------- ---------- -------------- -------------- --------------
    1 C                    6.0000     0.00000000    -1.17094682     0.23589977
    2 C                    6.0000     0.82848437     0.00000000    -0.24749709
    3 C                    6.0000    -0.82848437     0.00000000    -0.24749709
    4 C                    6.0000     0.00000000     1.17094682     0.23589977
    5 H                    1.0000     0.00000000    -2.04409809    -0.42684812
    6 H                    1.0000     0.00000000    -1.40073792     1.30205541
    7 H                    1.0000     1.25372045     0.00000000    -1.24652746
    8 H                    1.0000    -1.25372045     0.00000000    -1.24652746
    9 H                    1.0000     0.00000000     1.40073792     1.30205541
   10 H                    1.0000     0.00000000     2.04409809    -0.42684812

      Atomic Mass 
      ----------- 

      C                 12.000000
      H                  1.007825


 Effective nuclear repulsion energy (a.u.)     114.2769821917

            Nuclear Dipole moment (a.u.) 
            ----------------------------
        X                 Y               Z
 ---------------- ---------------- ----------------
     0.0000000000     0.0000000000    -1.6663757100

      Symmetry information
[...]
(dia2,par1)(k,t,iat1,spin)=(  2,  2,  9,  1)=(     6.37479005,     6.37479005,     1.14731105,     1.14731105) ppm
(dia2,par1)(k,t,iat1,spin)=(  3,  2,  9,  1)=(    -0.73644438,    -0.73644438,     2.30547991,     2.30547991) ppm
(dia2,par1)(k,t,iat1,spin)=(  1,  3,  9,  1)=(    -0.00071203,    -0.00071203,    -0.00093053,    -0.00093053) ppm
(dia2,par1)(k,t,iat1,spin)=(  2,  3,  9,  1)=(    -2.25453835,    -2.25453835,    -0.47445714,    -0.47445714) ppm
(dia2,par1)(k,t,iat1,spin)=(  3,  3,  9,  1)=(    -0.79149461,    -0.79149461,    -2.70440077,    -2.70440077) ppm
 Grid integrated density:      30.000003891379
 Requested integration accuracy:   0.10E-06
dia1(k,t,iat1,ispin)=(  1,  1, 10,  1)=(    18.12691336,    18.12691336) ppm
dia1(k,t,iat1,ispin)=(  1,  2, 10,  1)=(    -0.00155630,    -0.00155630) ppm
dia1(k,t,iat1,ispin)=(  1,  3, 10,  1)=(    -0.00166821,    -0.00166821) ppm
dia1(k,t,iat1,ispin)=(  2,  1, 10,  1)=(    -0.00318537,    -0.00318537) ppm
dia1(k,t,iat1,ispin)=(  2,  2, 10,  1)=(    39.10190545,    39.10190545) ppm
dia1(k,t,iat1,ispin)=(  2,  3, 10,  1)=(    -8.20311577,    -8.20311577) ppm
dia1(k,t,iat1,ispin)=(  3,  1, 10,  1)=(    -0.00052835,    -0.00052835) ppm
dia1(k,t,iat1,ispin)=(  3,  2, 10,  1)=(    -8.09347406,    -8.09347406) ppm
dia1(k,t,iat1,ispin)=(  3,  3, 10,  1)=(    21.84452237,    21.84452237) ppm
(dia2,par1)(k,t,iat1,spin)=(  1,  1, 10,  1)=(     6.00219506,     6.00219506,     1.23566875,     1.23566875) ppm
(dia2,par1)(k,t,iat1,spin)=(  2,  1, 10,  1)=(    -0.00105665,    -0.00105665,     0.00077389,     0.00077389) ppm
(dia2,par1)(k,t,iat1,spin)=(  3,  1, 10,  1)=(    -0.00004045,    -0.00004045,    -0.00140370,    -0.00140370) ppm
(dia2,par1)(k,t,iat1,spin)=(  1,  2, 10,  1)=(    -0.00251741,    -0.00251741,    -0.00015958,    -0.00015958) ppm
(dia2,par1)(k,t,iat1,spin)=(  2,  2, 10,  1)=(     0.04403253,     0.04403253,     0.23835527,     0.23835527) ppm
(dia2,par1)(k,t,iat1,spin)=(  3,  2, 10,  1)=(     2.66437490,     2.66437490,    -0.07202563,    -0.07202563) ppm
(dia2,par1)(k,t,iat1,spin)=(  1,  3, 10,  1)=(     0.00160027,     0.00160027,    -0.00155227,    -0.00155227) ppm
(dia2,par1)(k,t,iat1,spin)=(  2,  3, 10,  1)=(     3.50262711,     3.50262711,    -0.44656553,    -0.44656553) ppm
(dia2,par1)(k,t,iat1,spin)=(  3,  3, 10,  1)=(     5.09816397,     5.09816397,    -3.43620048,    -3.43620048) ppm
 Grid integrated density:      30.000003891379
 Requested integration accuracy:   0.10E-06

 Wrote ZORA NMR data to ./C1C2C1C2_mol_1_conformer_0.zora_nmrcs

(nogshift,skip_gshiftAOev,done_Fji)=( 1,F,T)


         Total DFT energy =     -156.022697214726
      One electron energy =     -437.067753821586
           Coulomb energy =      189.278171333172
    Exchange-Corr. energy =      -23.962455247285
 Nuclear repulsion energy =      115.629843180662

             COSMO energy =        0.099497340312

       Scaling correction =        0.035135875305

 Numeric. integr. density =       30.000001525245

     Total iterative time =     45.7s


                                   COSMO solvation results
                                   -----------------------

                 gas phase energy =      -156.020167272628
                 sol phase energy =      -156.022697214726
 (electrostatic) solvation energy =         0.002529942098 (    1.59 kcal/mol)

 center of mass
 --------------
 x =   0.00000000 y =   0.00000000 z =  -0.16243917

 moments of inertia (a.u.)
 ------------------
         195.730703718977           0.000000000000           0.000000000000
           0.000000000000         105.241347675161           0.000000000000
           0.000000000000           0.000000000000         218.542133569122

            Scalar ZORA NMR Shielding
            -------------------------


          -----------------------------------------
          Chemical Shielding Tensors (GIAO, in ppm)
          -----------------------------------------


 Read ZORA NMR data from ./C1C2C1C2_mol_1_conformer_0.zora_nmrcs

    0 giaofock schwarz done =      98.89%
    0 giaofock schwarz done =      98.47%
                                NWChem CPHF Module
                                ------------------



 solvent parameters
 solvname_short: cdcl3   
 solvname_long:  unknown                            
 dielec:       78.4000
 dielecinf:     1.7769

          ---------------
          -cosmo- solvent
          ---------------
 Cosmo: York-Karplus, doi: 10.1021/jp992097l
 dielectric constant -eps-     =  78.40
 screen = (eps-1)/(eps    )    =   0.98724
 surface charge correction     = lagrangian
 -lineq- algorithm             =   0
 -bem- low  level              =   2
 -bem- from -octahedral-
 gaussian surface charge width =   0.98000
 degree of switching           =   1.00000
 switching function tolerance  =   0.00010
 atomic radii = 
 --------------
    1  6.000  2.000
    2  6.000  2.000
    3  6.000  2.000
    4  6.000  2.000
    5  1.000  1.300
    6  1.000  1.300
    7  1.000  1.300
    8  1.000  1.300
    9  1.000  1.300
   10  1.000  1.300

 solvent accessible surface
 --------------------------

 ---------- ATOMIC COORDINATES (A.U.) ------------ VDWR(ANG.) --
     1    0.00000000   -2.16055954    0.43691724     2.000
     2    1.42632940    0.00000000   -0.76991771     2.000
     3   -1.42632940    0.00000000   -0.76991771     2.000
     4    0.00000000    2.16055954    0.43691724     2.000
     5    0.00000000   -3.94829410   -0.56064233     1.300
     6    0.00000000   -2.34258624    2.48243172     1.300
     7    2.74612416    0.00000000   -2.31239805     1.300
     8   -2.74612416    0.00000000   -2.31239805     1.300
     9    0.00000000    2.34258624    2.48243172     1.300
    10    0.00000000    3.94829410   -0.56064233     1.300
 number of segments per atom =         32
 number of   points per atom =         32
 atom (   nspa,  nppa )
 ----------------------
    1 (     14,     0 )       0
    2 (     16,     0 )       0
    3 (     16,     0 )       0
    4 (     14,     0 )       0
    5 (     16,     0 )       0
    6 (     16,     0 )       0
    7 (     12,     0 )       0
    8 (     12,     0 )       0
    9 (     16,     0 )       0
   10 (     16,     0 )       0
 number of -cosmo- surface points =      148
 molecular surface =     90.016 angstrom**2
 molecular volume  =     51.554 angstrom**3
 G(cav/disp)       =      1.310 kcal/mol
 ...... end of -cosmo- initialization ......


  scftype          =     RHF 
  nclosed          =       15
  nopen            =        0
  variables        =      825
  # of vectors     =        3
  tolerance        = 0.10D-03
  level shift      = 0.00D+00
  max iterations   =       50
  max subspace     =       30

 SCF residual:    1.4155115019461682E-004


Iterative solution of linear equations
  No. of variables      825
  No. of equations        3
  Maximum subspace       30
        Iterations       50
       Convergence  1.0D-04
        Start time    889.5


   iter   nsub   residual    time
   ----  ------  --------  ---------
     1      3    4.48D-01     891.4
     2      6    7.68D-03     893.4
     3      9    5.03D-04     895.1
     4     12    2.81D-05     896.9

 Wrote CPHF data to ./C1C2C1C2_mol_1_conformer_0.shieldcphf

 Calc. par tensor-> zora
      Atom:    1  H 
        Diamagnetic
     24.1425      0.0033     -0.0002
      0.0033     39.1563      5.0646
     -0.0002      5.0646     26.9547

        Paramagnetic
      2.4113     -0.0037     -0.0002
     -0.0037      1.1937     -2.4626
     -0.0002     -2.4626      0.4996

        Total Shielding Tensor
     26.5538     -0.0004     -0.0004
     -0.0004     40.3500      2.6020
     -0.0004      2.6020     27.4543

           isotropic =      31.4527
          anisotropy =      14.1037

          Principal Components and Axis System
                 1           2           3
               40.8552     26.9491     26.5538

      1        -0.0000     -0.0009      1.0000
      2         0.9817     -0.1906     -0.0001
      3         0.1906      0.9817      0.0008



      Atom:    2  H 
        Diamagnetic
     22.9269      0.0024     -0.0019
      0.0024     27.4920     -3.8179
     -0.0019     -3.8179     39.4600

        Paramagnetic
      3.9521     -0.0020      0.0006
     -0.0020      3.1403      0.2874
      0.0006      0.2874     -0.8702

        Total Shielding Tensor
     26.8790      0.0005     -0.0013
      0.0005     30.6324     -3.5305
     -0.0013     -3.5305     38.5898

           isotropic =      32.0337
          anisotropy =      11.8449

          Principal Components and Axis System
                 1           2           3
               39.9304     29.2918     26.8790

      1        -0.0001     -0.0000      1.0000
      2        -0.3550      0.9349     -0.0000
      3         0.9349      0.3550      0.0001



      Atom:    3  H 
        Diamagnetic
     30.8974      0.0017     -8.2031
      0.0017     24.3401     -0.0016
     -8.2031     -0.0016     32.3585

        Paramagnetic
     -0.1285      0.0003      1.5275
      0.0003      4.0258     -0.0002
      1.5275     -0.0002      2.8436

        Total Shielding Tensor
     30.7689      0.0020     -6.6756
      0.0020     28.3659     -0.0018
     -6.6756     -0.0018     35.2021

           isotropic =      31.4456
          anisotropy =      12.8607

          Principal Components and Axis System
                 1           2           3
               40.0194     28.3659     25.9515

      1        -0.5852      0.0001      0.8109
      2        -0.0002      1.0000     -0.0002
      3         0.8109      0.0003      0.5852



      Atom:    4  H 
        Diamagnetic
     30.8758     -0.0010      8.2061
     -0.0010     24.3149     -0.0008
      8.2061     -0.0008     32.3382

        Paramagnetic
     -0.1224     -0.0007     -1.5277
     -0.0007      4.0427     -0.0011
     -1.5277     -0.0011      2.8382

        Total Shielding Tensor
     30.7534     -0.0017      6.6784
     -0.0017     28.3576     -0.0019
      6.6784     -0.0019     35.1764

           isotropic =      31.4291
          anisotropy =      12.8563

          Principal Components and Axis System
                 1           2           3
               40.0000     28.3576     25.9298

      1         0.5855      0.0000      0.8107
      2        -0.0002      1.0000      0.0001
      3         0.8107      0.0002     -0.5855



      Atom:    5  H 
        Diamagnetic
     22.9105     -0.0023     -0.0023
     -0.0023     27.4817      3.8194
     -0.0023      3.8194     39.4452

        Paramagnetic
      3.9505      0.0022      0.0023
      0.0022      3.1405     -0.2874
      0.0023     -0.2874     -0.8795

        Total Shielding Tensor
     26.8611     -0.0002      0.0000
     -0.0002     30.6222      3.5319
      0.0000      3.5319     38.5657

           isotropic =      32.0163
          anisotropy =      11.8389

          Principal Components and Axis System
                 1           2           3
               39.9089     29.2790     26.8611

      1        -0.0000     -0.0001      1.0000
      2         0.3555      0.9347      0.0001
      3         0.9347     -0.3555     -0.0000



      Atom:    6  H 
        Diamagnetic
     24.1291     -0.0042     -0.0003
     -0.0042     39.1459     -5.0648
     -0.0003     -5.0648     26.9427

        Paramagnetic
      2.4026      0.0049     -0.0004
      0.0049      1.1891      2.4658
     -0.0004      2.4658      0.4936

        Total Shielding Tensor
     26.5317      0.0007     -0.0008
      0.0007     40.3350     -2.5990
     -0.0008     -2.5990     27.4363

           isotropic =      31.4343
          anisotropy =      14.1070

          Principal Components and Axis System
                 1           2           3
               40.8390     26.9323     26.5317

      1         0.0001     -0.0015      1.0000
      2         0.9817      0.1904      0.0002
      3        -0.1904      0.9817      0.0015




 Task  times  cpu:       70.9s     wall:       64.1s


                                NWChem Input Module
                                -------------------


 Summary of allocated global arrays
-----------------------------------
  array 0 => double precision sf 1(70,70),  handle: -987 
  array 1 => double precision sf 1(70,70),  handle: -986 
  array 2 => double precision sf 1(70,70),  handle: -985 
  array 3 => double precision sf 1(70,70),  handle: -984 
  array 4 => double precision sf 1(70,70),  handle: -983 
  array 5 => double precision sf 1(70,70),  handle: -982 
  array 6 => double precision sf 1(70,70),  handle: -981 
  array 7 => double precision sf 1(70,70),  handle: -980 
  array 8 => double precision sf 1(70,70),  handle: -979 
  array 9 => double precision sf 1(70,70),  handle: -978 
  array 10 => double precision sf 1(70,70),  handle: -977 
  array 11 => double precision sf 1(70,70),  handle: -976 
  array 12 => double precision sf 1(70,70),  handle: -975 
  array 13 => double precision sf 1(70,70),  handle: -974 
  array 14 => double precision sf 1(70,70),  handle: -973 
  array 15 => double precision sf 1(70,70),  handle: -972 
  array 16 => double precision sf 1(70,70),  handle: -971 
  array 17 => double precision sf 1(70,70),  handle: -970 
  array 18 => double precision sf 1(70,70),  handle: -969 
  array 19 => double precision sf 1(70,70),  handle: -968 
  array 20 => double precision sf 1(70,70),  handle: -967 
  array 21 => double precision sf 1(70,70),  handle: -966 
  array 22 => double precision sf 1(70,70),  handle: -965 
  array 23 => double precision sf 1(70,70),  handle: -964 
  array 24 => double precision sf 1(70,70),  handle: -963 
  array 25 => double precision sf 1(70,70),  handle: -962 
  array 26 => double precision sf 1(70,70),  handle: -961 
  array 27 => double precision sf 1(70,70),  handle: -960 
  array 28 => double precision sf 1(70,70),  handle: -959 
  array 29 => double precision sf 1(70,70),  handle: -958 
  array 30 => double precision sf 1(70,70),  handle: -957 
  array 31 => double precision sf 1(70,70),  handle: -956 
  array 32 => double precision sf 1(70,70),  handle: -955 
  array 33 => double precision sf 1(70,70),  handle: -954 
  array 34 => double precision sf 1(70,70),  handle: -953 
  array 35 => double precision sf 1(70,70),  handle: -952 
  array 36 => double precision sf 1(70,70),  handle: -951 
  array 37 => double precision sf 1(70,70),  handle: -950 
  array 38 => double precision sf 1(70,70),  handle: -949 
  array 39 => double precision sf 1(70,70),  handle: -948 
  array 40 => double precision sf 1(70,70),  handle: -947 
  array 41 => double precision sf 1(70,70),  handle: -946 
  array 42 => double precision sf 1(70,70),  handle: -945 
  array 43 => double precision sf 1(70,70),  handle: -944 
  array 44 => double precision sf 1(70,70),  handle: -943 
  array 45 => double precision sf 1(70,70),  handle: -942 
  array 46 => double precision sf 1(70,70),  handle: -941 
  array 47 => double precision sf 1(70,70),  handle: -940 
  array 48 => double precision sf 1(70,70),  handle: -939 
  array 49 => double precision sf 1(70,70),  handle: -938 
  array 50 => double precision sf 1(70,70),  handle: -937 



                         GA Statistics for process    0
                         ------------------------------

       create   destroy   get      put      acc     scatter   gather  read&inc
calls: 9188     8822     2.65e+05 5.41e+04 8.52e+04   60        0     6750     
number of processes/call 0.00e+00 0.00e+00 0.00e+00 0.00e+00 0.00e+00
bytes total:             3.62e+08 5.51e+07 2.87e+08 3.36e+02 0.00e+00 5.40e+04
bytes remote:            3.18e+08 4.52e+07 2.62e+08 -1.68e+02 0.00e+00 0.00e+00
Max memory consumed for GA by this process: 580576 bytes

MA_summarize_allocated_blocks: starting scan ...
MA_summarize_allocated_blocks: scan completed: 0 heap blocks, 0 stack blocks
MA usage statistics:

	allocation statistics:
					      heap	     stack
					      ----	     -----
	current number of blocks	         0	         0
	maximum number of blocks	        66	        59
	current total bytes		         0	         0
	maximum total bytes		   2004840	  27319096
	maximum total K-bytes		      2005	     27320
	maximum total M-bytes		         3	        28


                                     CITATION
                                     --------
                Please cite the following reference when publishing
                           results obtained with NWChem:

          E. Apr, E. J. Bylaska, W. A. de Jong, N. Govind, K. Kowalski,
       T. P. Straatsma, M. Valiev, H. J. J. van Dam, Y. Alexeev, J. Anchell,
       V. Anisimov, F. W. Aquino, R. Atta-Fynn, J. Autschbach, N. P. Bauman,
     J. C. Becca, D. E. Bernholdt, K. Bhaskaran-Nair, S. Bogatko, P. Borowski,
        J. Boschen, J. Brabec, A. Bruner, E. Caut, Y. Chen, G. N. Chuev,
      C. J. Cramer, J. Daily, M. J. O. Deegan, T. H. Dunning Jr., M. Dupuis,
   K. G. Dyall, G. I. Fann, S. A. Fischer, A. Fonari, H. Frchtl, L. Gagliardi,
      J. Garza, N. Gawande, S. Ghosh, K. Glaesemann, A. W. Gtz, J. Hammond,
       V. Helms, E. D. Hermes, K. Hirao, S. Hirata, M. Jacquelin, L. Jensen,
   B. G. Johnson, H. Jnsson, R. A. Kendall, M. Klemm, R. Kobayashi, V. Konkov,
      S. Krishnamoorthy, M. Krishnan, Z. Lin, R. D. Lins, R. J. Littlefield,
      A. J. Logsdail, K. Lopata, W. Ma, A. V. Marenich, J. Martin del Campo,
   D. Mejia-Rodriguez, J. E. Moore, J. M. Mullin, T. Nakajima, D. R. Nascimento,
    J. A. Nichols, P. J. Nichols, J. Nieplocha, A. Otero-de-la-Roza, B. Palmer,
    A. Panyala, T. Pirojsirikul, B. Peng, R. Peverati, J. Pittner, L. Pollack,
   R. M. Richard, P. Sadayappan, G. C. Schatz, W. A. Shelton, D. W. Silverstein,
   D. M. A. Smith, T. A. Soares, D. Song, M. Swart, H. L. Taylor, G. S. Thomas,
            V. Tipparaju, D. G. Truhlar, K. Tsemekhman, T. Van Voorhis,
     . Vzquez-Mayagoitia, P. Verma, O. Villa, A. Vishnu, K. D. Vogiatzis,
        D. Wang, J. H. Weare, M. J. Williamson, T. L. Windus, K. Woliski,
        A. T. Wong, Q. Wu, C. Yang, Q. Yu, M. Zacharias, Z. Zhang, Y. Zhao,
                                and R. J. Harrison
                        "NWChem: Past, present, and future
                         J. Chem. Phys. 152, 184102 (2020)
                               doi:10.1063/5.0004997

                                      AUTHORS
                                      -------
     E. Apra, E. J. Bylaska, N. Govind, K. Kowalski, M. Valiev, W. A. de Jong,
      T. P. Straatsma, H. J. J. van Dam, D. Wang, T. L. Windus, N. P. Bauman,
       A. Panyala, J. Hammond, J. Autschbach, K. Bhaskaran-Nair, J. Brabec,
    K. Lopata, S. A. Fischer, S. Krishnamoorthy, M. Jacquelin, W. Ma, M. Klemm,
       O. Villa, Y. Chen, V. Anisimov, F. Aquino, S. Hirata, M. T. Hackler,
           Eric Hermes, L. Jensen, J. E. Moore, J. C. Becca, V. Konjkov,
            D. Mejia-Rodriguez, T. Risthaus, M. Malagoli, A. Marenich,
   A. Otero-de-la-Roza, J. Mullin, P. Nichols, R. Peverati, J. Pittner, Y. Zhao,
        P.-D. Fan, A. Fonari, M. J. Williamson, R. J. Harrison, J. R. Rehr,
      M. Dupuis, D. Silverstein, D. M. A. Smith, J. Nieplocha, V. Tipparaju,
      M. Krishnan, B. E. Van Kuiken, A. Vazquez-Mayagoitia, M. Swart, Q. Wu,
   T. Van Voorhis, A. A. Auer, M. Nooijen, L. D. Crosby, E. Brown, G. Cisneros,
     G. I. Fann, H. Fruchtl, J. Garza, K. Hirao, R. A. Kendall, J. A. Nichols,
       K. Tsemekhman, K. Wolinski, J. Anchell, D. E. Bernholdt, P. Borowski,
       T. Clark, D. Clerc, H. Dachsel, M. J. O. Deegan, K. Dyall, D. Elwood,
      E. Glendening, M. Gutowski, A. C. Hess, J. Jaffe, B. G. Johnson, J. Ju,
        R. Kobayashi, R. Kutteh, Z. Lin, R. Littlefield, X. Long, B. Meng,
      T. Nakajima, S. Niu, L. Pollack, M. Rosing, K. Glaesemann, G. Sandrone,
      M. Stave, H. Taylor, G. Thomas, J. H. van Lenthe, A. T. Wong, Z. Zhang.

 Total times  cpu:      900.4s     wall:      897.2s
