 argument  1 = C1C2C1C2_mol_6_conformer_0.nw



============================== echo of input deck ==============================
start

title "Molecule conformer 0"

memory total 4000 mb

echo
geometry units angstroms
   C     -1.2329    -0.2727    -0.2432
   C      0.0045    -0.4855     0.5991
   C     -0.0118     0.5781    -0.5102
   C      1.2666    -0.1508    -0.1634
   H     -1.4020    -1.0658    -1.0009
   H     -2.0643     0.2529     0.2732
   H     -0.0522     0.0320     1.5825
   H     -0.0758     1.5815    -0.0338
   H      1.5597    -0.9211    -0.9067
   H      2.0083     0.4515     0.4034
end


basis spherical
* library 6-311G
end

driver
  maxiter 500
  xyz final
end

relativistic
  zora on
  zora:cutoff_NMR 1d-8
  zora:cutoff 1d-30
end

dft
  direct
  grid fine
  xc B3LYP
  mult 1
  maxiter 1500
  noprint "final vectors analysis" multipole
end

task dft optimize

task dft freq

property
  shielding 6 5 6 7 8 9 10
end

cosmo
   solvent cdcl3
end

task dft property
================================================================================


                                         
                                         


             Northwest Computational Chemistry Package (NWChem) 7.0.2
             --------------------------------------------------------


                    Environmental Molecular Sciences Laboratory
                       Pacific Northwest National Laboratory
                                Richland, WA 99352

                              Copyright (c) 1994-2020
                       Pacific Northwest National Laboratory
                            Battelle Memorial Institute

             NWChem is an open-source computational chemistry package
                        distributed under the terms of the
                      Educational Community License (ECL) 2.0
             A copy of the license is included with this distribution
                              in the LICENSE.TXT file

                                  ACKNOWLEDGMENT
                                  --------------

            This software and its documentation were developed at the
            EMSL at Pacific Northwest National Laboratory, a multiprogram
            national laboratory, operated for the U.S. Department of Energy
            by Battelle under Contract Number DE-AC05-76RL01830. Support
            for this work was provided by the Department of Energy Office
            of Biological and Environmental Research, Office of Basic
            Energy Sciences, and the Office of Advanced Scientific Computing.


           Job information
           ---------------

    hostname        = ponder
    program         = nwchem
    date            = Sat Aug  3 14:58:25 2024

    compiled        = Sat_Apr_09_17:12:10_2022
    source          = /build/nwchem-f1f4gx/nwchem-7.0.2/build-openmpi
    nwchem branch   = 7.0.2
    nwchem revision = N/A
    ga revision     = 5.8.1
    use scalapack   = T
    input           = C1C2C1C2_mol_6_conformer_0.nw
    prefix          = C1C2C1C2_mol_6_conformer_0.
    data base       = ./C1C2C1C2_mol_6_conformer_0.db
    status          = startup
    nproc           =       40
    time left       =     -1s



           Memory information
           ------------------

    heap     =  131071994 doubles =   1000.0 Mbytes
    stack    =  131071999 doubles =   1000.0 Mbytes
    global   =  262144000 doubles =   2000.0 Mbytes (distinct from heap & stack)
    total    =  524287993 doubles =   4000.0 Mbytes
    verify   = yes
    hardfail = no 


           Directory information
           ---------------------

  0 permanent = .
  0 scratch   = .




                                NWChem Input Module
                                -------------------


                               Molecule conformer 0
                               --------------------

 Scaling coordinates for geometry "geometry" by  1.889725989
 (inverse scale =  0.529177249)

 C2V symmetry detected

          ------
          auto-z
          ------
  no constraints, skipping    0.0000000000000000     
  no constraints, skipping    0.0000000000000000     


                             Geometry "geometry" -> ""
                             -------------------------

 Output coordinates in angstroms (scale by  1.889725989 to convert to a.u.)

  No.       Tag          Charge          X              Y              Z
 ---- ---------------- ---------- -------------- -------------- --------------
    1 C                    6.0000     0.00000000     1.25187139    -0.21745033
    2 C                    6.0000    -0.76844926     0.00000000     0.14086533
    3 C                    6.0000     0.76844926     0.00000000     0.14086533
    4 C                    6.0000     0.00000000    -1.25187139    -0.21745033
    5 H                    1.0000     0.00000000     1.48336430    -1.30287610
    6 H                    1.0000     0.00000000     2.03975885     0.56573652
    7 H                    1.0000    -1.11959062     0.00000000     1.19664956
    8 H                    1.0000     1.11959062     0.00000000     1.19664956
    9 H                    1.0000     0.00000000    -1.48336430    -1.30287610
   10 H                    1.0000     0.00000000    -2.03975885     0.56573652

      Atomic Mass 
      ----------- 

      C                 12.000000
      H                  1.007825


 Effective nuclear repulsion energy (a.u.)     114.6834738740

            Nuclear Dipole moment (a.u.) 
            ----------------------------
        X                 Y               Z
 ---------------- ---------------- ----------------
     0.0000000000     0.0000000000     0.0000000000

      Symmetry information
      --------------------

 Group name             C2v       
 Group number             16
 Group order               4
 No. of unique centers     5

      Symmetry unique atoms

     1    2    5    6    7



                                Z-matrix (autoz)
                                -------- 

 Units are Angstrom for bonds and degrees for angles

      Type          Name      I     J     K     L     M      Value
      ----------- --------  ----- ----- ----- ----- ----- ----------
    1 Stretch                  1     2                       1.51198
    2 Stretch                  1     3                       1.51198
    3 Stretch                  1     5                       1.10984
    4 Stretch                  1     6                       1.11092
    5 Stretch                  2     3                       1.53690
    6 Stretch                  2     4                       1.51198
    7 Stretch                  2     7                       1.11265
    8 Stretch                  3     4                       1.51198
    9 Stretch                  3     8                       1.11265
   10 Stretch                  4     9                       1.10984
   11 Stretch                  4    10                       1.11092
   12 Bend                     1     2     3                59.45333
   13 Bend                     1     2     4               111.78107
   14 Bend                     1     2     7               112.66046
   15 Bend                     1     3     2                59.45333
   16 Bend                     1     3     4               111.78107
   17 Bend                     1     3     8               112.66046
   18 Bend                     2     1     3                61.09334
   19 Bend                     2     1     5               113.85802
   20 Bend                     2     1     6               114.84340
   21 Bend                     2     3     4                59.45333
   22 Bend                     2     3     8               108.39652
   23 Bend                     2     4     3                61.09334
   24 Bend                     2     4     9               113.85802
   25 Bend                     2     4    10               114.84340
   26 Bend                     3     1     5               113.85802
   27 Bend                     3     1     6               114.84340
   28 Bend                     3     2     4                59.45333
   29 Bend                     3     2     7               108.39652
   30 Bend                     3     4     9               113.85802
   31 Bend                     3     4    10               114.84340
   32 Bend                     4     2     7               112.66046
   33 Bend                     4     3     8               112.66046
   34 Bend                     5     1     6               122.78926
   35 Bend                     9     4    10               122.78926
   36 Torsion                  1     2     3     4        -148.05521
   37 Torsion                  1     2     3     8         105.97239
   38 Torsion                  1     2     4     3          29.38678
   39 Torsion                  1     2     4     9         -75.74252
   40 Torsion                  1     2     4    10         135.24315
   41 Torsion                  1     3     2     4         148.05521
   42 Torsion                  1     3     2     7        -105.97239
   43 Torsion                  1     3     4     2         -29.38678
   44 Torsion                  1     3     4     9          75.74252
   45 Torsion                  1     3     4    10        -135.24315
   46 Torsion                  2     1     3     4          29.38678
   47 Torsion                  2     1     3     8         -98.66864
   48 Torsion                  2     3     1     5        -105.12929
   49 Torsion                  2     3     1     6         105.85638
   50 Torsion                  2     3     4     9         105.12929
   51 Torsion                  2     3     4    10        -105.85638
   52 Torsion                  2     4     3     8          98.66864
   53 Torsion                  3     1     2     4         -29.38678
   54 Torsion                  3     1     2     7          98.66864
   55 Torsion                  3     2     1     5         105.12929
   56 Torsion                  3     2     1     6        -105.85638
   57 Torsion                  3     2     4     9        -105.12929
   58 Torsion                  3     2     4    10         105.85638
   59 Torsion                  3     4     2     7         -98.66864
   60 Torsion                  4     2     1     5          75.74252
   61 Torsion                  4     2     1     6        -135.24315
   62 Torsion                  4     2     3     8        -105.97239
   63 Torsion                  4     3     1     5         -75.74252
   64 Torsion                  4     3     1     6         135.24315
   65 Torsion                  4     3     2     7         105.97239
   66 Torsion                  5     1     2     7        -156.20207
   67 Torsion                  5     1     3     8         156.20207
   68 Torsion                  6     1     2     7          -7.18773
   69 Torsion                  6     1     3     8           7.18773
   70 Torsion                  7     2     3     8           0.00000
   71 Torsion                  7     2     4     9         156.20207
   72 Torsion                  7     2     4    10           7.18773
   73 Torsion                  8     3     4     9        -156.20207
   74 Torsion                  8     3     4    10          -7.18773


            XYZ format geometry
            -------------------
    10
 geometry
 C                     0.00000000     1.25187139    -0.21745033
 C                    -0.76844926     0.00000000     0.14086533
 C                     0.76844926     0.00000000     0.14086533
 C                     0.00000000    -1.25187139    -0.21745033
 H                     0.00000000     1.48336430    -1.30287610
 H                     0.00000000     2.03975885     0.56573652
 H                    -1.11959062     0.00000000     1.19664956
 H                     1.11959062     0.00000000     1.19664956
 H                     0.00000000    -1.48336430    -1.30287610
 H                     0.00000000    -2.03975885     0.56573652

 ==============================================================================
                                internuclear distances
 ------------------------------------------------------------------------------
       center one      |      center two      | atomic units |  angstroms
 ------------------------------------------------------------------------------
    2 C                |   1 C                |     2.85723  |     1.51198
    3 C                |   1 C                |     2.85723  |     1.51198
    3 C                |   2 C                |     2.90432  |     1.53690
    4 C                |   2 C                |     2.85723  |     1.51198
    4 C                |   3 C                |     2.85723  |     1.51198
    5 H                |   1 C                |     2.09729  |     1.10984
    6 H                |   1 C                |     2.09934  |     1.11092
    7 H                |   2 C                |     2.10260  |     1.11265
    8 H                |   3 C                |     2.10260  |     1.11265
    9 H                |   4 C                |     2.09729  |     1.10984
   10 H                |   4 C                |     2.09934  |     1.11092
 ------------------------------------------------------------------------------
                         number of included internuclear distances:         11
 ==============================================================================



 ==============================================================================
                                 internuclear angles
 ------------------------------------------------------------------------------
        center 1       |       center 2       |       center 3       |  degrees
 ------------------------------------------------------------------------------
    2 C                |   1 C                |   3 C                |    61.09
    2 C                |   1 C                |   5 H                |   113.86
    2 C                |   1 C                |   6 H                |   114.84
    3 C                |   1 C                |   5 H                |   113.86
    3 C                |   1 C                |   6 H                |   114.84
    5 H                |   1 C                |   6 H                |   122.79
    2 C                |   1 C                |   3 C                |    61.09
    1 C                |   2 C                |   4 C                |   111.78
    1 C                |   2 C                |   7 H                |   112.66
    2 C                |   4 C                |   3 C                |    61.09
    3 C                |   2 C                |   7 H                |   108.40
    4 C                |   2 C                |   7 H                |   112.66
    3 C                |   1 C                |   2 C                |    61.09
    1 C                |   3 C                |   4 C                |   111.78
    1 C                |   3 C                |   8 H                |   112.66
    3 C                |   4 C                |   2 C                |    61.09
    2 C                |   3 C                |   8 H                |   108.40
    4 C                |   3 C                |   8 H                |   112.66
    2 C                |   4 C                |   3 C                |    61.09
    2 C                |   4 C                |   9 H                |   113.86
    2 C                |   4 C                |  10 H                |   114.84
    3 C                |   4 C                |   9 H                |   113.86
    3 C                |   4 C                |  10 H                |   114.84
    9 H                |   4 C                |  10 H                |   122.79
 ------------------------------------------------------------------------------
                            number of included internuclear angles:         24
 ==============================================================================





 Summary of "ao basis" -> "" (spherical)
 ------------------------------------------------------------------------------
       Tag                 Description            Shells   Functions and Types
 ---------------- ------------------------------  ------  ---------------------
 *                           6-311G                   on all atoms 




                           NWChem Geometry Optimization
                           ----------------------------




                               Molecule conformer 0


  no constraints, skipping    0.0000000000000000     
 maximum gradient threshold         (gmax) =   0.000450
 rms gradient threshold             (grms) =   0.000300
 maximum cartesian step threshold   (xmax) =   0.001800
 rms cartesian step threshold       (xrms) =   0.001200
 fixed trust radius                (trust) =   0.300000
 maximum step size to saddle      (sadstp) =   0.100000
 energy precision                  (eprec) =   5.0D-06
 maximum number of steps          (nptopt) =  500
 initial hessian option           (inhess) =    0
 line search option               (linopt) =    1
 hessian update option            (modupd) =    1
 saddle point option              (modsad) =    0
 initial eigen-mode to follow     (moddir) =    0
 initial variable to follow       (vardir) =    0
 follow first negative mode     (firstneg) =    T
 apply conjugacy                    (opcg) =    F
 source of zmatrix                         =   autoz   


          -------------------
          Energy Minimization
          -------------------


 Names of Z-matrix variables 
    1              2              3              4              5         
    6              7              8              9             10         
   11             12             13             14             15         
   16             17             18             19             20         
   21             22             23             24             25         
   26             27             28             29             30         
   31             32             33             34             35         
   36             37             38             39             40         
   41             42             43             44             45         
   46             47             48             49             50         
   51             52             53             54             55         
   56             57             58             59             60         
   61             62             63             64             65         
   66             67             68             69             70         
   71             72             73             74         

 Variables with the same non-blank name are constrained to be equal


 Using diagonal initial Hessian 
 Scaling for Hessian diagonals: bonds = 1.00  angles = 0.25  torsions = 0.10

          --------
          Step   0
          --------


                         Geometry "geometry" -> "geometry"
                         ---------------------------------

 Output coordinates in angstroms (scale by  1.889725989 to convert to a.u.)

  No.       Tag          Charge          X              Y              Z
 ---- ---------------- ---------- -------------- -------------- --------------
    1 C                    6.0000     0.00000000     1.25187139    -0.21745033
    2 C                    6.0000    -0.76844926     0.00000000     0.14086533
    3 C                    6.0000     0.76844926     0.00000000     0.14086533
    4 C                    6.0000     0.00000000    -1.25187139    -0.21745033
    5 H                    1.0000     0.00000000     1.48336430    -1.30287610
    6 H                    1.0000     0.00000000     2.03975885     0.56573652
    7 H                    1.0000    -1.11959062     0.00000000     1.19664956
    8 H                    1.0000     1.11959062     0.00000000     1.19664956
    9 H                    1.0000     0.00000000    -1.48336430    -1.30287610
   10 H                    1.0000     0.00000000    -2.03975885     0.56573652

      Atomic Mass 
      ----------- 

      C                 12.000000
      H                  1.007825


 Effective nuclear repulsion energy (a.u.)     114.6834738740

            Nuclear Dipole moment (a.u.) 
            ----------------------------
        X                 Y               Z
 ---------------- ---------------- ----------------
     0.0000000000     0.0000000000     0.0000000000

      Symmetry information
      --------------------

 Group name             C2v       
 Group number             16
 Group order               4
 No. of unique centers     5

      Symmetry unique atoms

     1    2    5    6    7


                                 NWChem DFT Module
                                 -----------------


                               Molecule conformer 0


                      Basis "ao basis" -> "ao basis" (spherical)
                      -----
  C (Carbon)
  ----------
            Exponent  Coefficients 
       -------------- ---------------------------------------------------------
  1 S  4.56324000E+03  0.001967
  1 S  6.82024000E+02  0.015231
  1 S  1.54973000E+02  0.076127
  1 S  4.44553000E+01  0.260801
  1 S  1.30290000E+01  0.616462
  1 S  1.82773000E+00  0.221006

  2 S  2.09642000E+01  0.114660
  2 S  4.80331000E+00  0.919999
  2 S  1.45933000E+00 -0.003031

  3 P  2.09642000E+01  0.040249
  3 P  4.80331000E+00  0.237594
  3 P  1.45933000E+00  0.815854

  4 S  4.83456000E-01  1.000000

  5 P  4.83456000E-01  1.000000

  6 S  1.45585000E-01  1.000000

  7 P  1.45585000E-01  1.000000

  H (Hydrogen)
  ------------
            Exponent  Coefficients 
       -------------- ---------------------------------------------------------
  1 S  3.38650000E+01  0.025494
  1 S  5.09479000E+00  0.190373
  1 S  1.15879000E+00  0.852161

  2 S  3.25840000E-01  1.000000

  3 S  1.02741000E-01  1.000000



 Summary of "ao basis" -> "ao basis" (spherical)
 ------------------------------------------------------------------------------
       Tag                 Description            Shells   Functions and Types
 ---------------- ------------------------------  ------  ---------------------
 C                           6-311G                  7       13   4s3p
 H                           6-311G                  3        3   3s




 Summary of "ao basis" -> "ao basis" (spherical)
 ------------------------------------------------------------------------------
       Tag                 Description            Shells   Functions and Types
 ---------------- ------------------------------  ------  ---------------------
 C                           6-311G                  7       13   4s3p
 H                           6-311G                  3        3   3s


      Symmetry analysis of basis
      --------------------------

        a1         29
        a2          6
        b1         16
        b2         19

  Caching 1-el integrals 

            General Information
            -------------------
          SCF calculation type: DFT
          Wavefunction type:  closed shell.
          No. of atoms     :    10
          No. of electrons :    30
           Alpha electrons :    15
            Beta electrons :    15
          Charge           :     0
          Spin multiplicity:     1
          Use of symmetry is: on ; symmetry adaption is: on 
          Maximum number of iterations: ***
          This is a Direct SCF calculation.
          AO basis - number of functions:    70
                     number of shells:    46
          Convergence on energy requested:  1.00D-06
          Convergence on density requested:  1.00D-05
          Convergence on gradient requested:  5.00D-04

              XC Information
              --------------
                         B3LYP Method XC Potential
                     Hartree-Fock (Exact) Exchange  0.200          
                        Slater Exchange Functional  0.800 local    
                    Becke 1988 Exchange Functional  0.720 non-local
              Lee-Yang-Parr Correlation Functional  0.810          
                  VWN I RPA Correlation Functional  0.190 local    

             Grid Information
             ----------------
          Grid used for XC integration:  fine      
          Radial quadrature: Mura-Knowles        
          Angular quadrature: Lebedev. 
          Tag              B.-S. Rad. Rad. Pts. Rad. Cut. Ang. Pts.
          ---              ---------- --------- --------- ---------
          C                   0.70       70          10.0       590
          H                   0.35       60          11.0       590
          Grid pruning is: on 
          Number of quadrature shells:   320
          Spatial weights used:  Erf1

          Convergence Information
          -----------------------
          Convergence aids based upon iterative change in 
          total energy or number of iterations. 
          Levelshifting, if invoked, occurs when the 
          HOMO/LUMO gap drops below (HL_TOL):  1.00D-02
          DIIS, if invoked, will attempt to extrapolate 
          using up to (NFOCK): 10 stored Fock matrices.

                    Damping( 0%)  Levelshifting(0.5)       DIIS
                  --------------- ------------------- ---------------
          dE  on:    start            ASAP                start   
          dE off:    2 iters        *** iters           *** iters 


      Screening Tolerance Information
      -------------------------------
          Density screening/tol_rho:  1.00D-10
          AO Gaussian exp screening on grid/accAOfunc:  14
          CD Gaussian exp screening on grid/accCDfunc:  20
          XC Gaussian exp screening on grid/accXCfunc:  20
          Schwarz screening/accCoul:  1.00D-08

          Performing ZORA calculations
          ----------------------------


      Superposition of Atomic Density Guess
      -------------------------------------

 Sum of atomic energies:        -153.67306699

 Read atomic ZORA corrections from ./C1C2C1C2_mol_6_conformer_0.zora_sf

 dft_zora_read: failed to open./C1C2C1C2_mol_6_conformer_0.zora_sf
 Forcing recalculation of ZORA corrections
       Generating atomic ZORA corrections
       ----------------------------------

 In dft_scf:: zora:Knucl= F

 Grid_pts file          = ./C1C2C1C2_mol_6_conformer_0.gridpts.00
 Record size in doubles =  12289        No. of grid_pts per rec  =   3070
 Max. records in memory =      3        Max. recs in file   =     13557

 Grid integrated density:      29.999985330310
 Requested integration accuracy:   0.10E-06

 Wrote atomic ZORA corrections to ./C1C2C1C2_mol_6_conformer_0.zora_sf


      Superposition of Atomic Density Guess
      -------------------------------------

 Sum of atomic energies:        -153.67306699

      Non-variational initial energy
      ------------------------------

 Total energy =    -156.684424
 1-e energy   =    -431.542664
 2-e energy   =     160.174766
 HOMO         =      -0.249852
 LUMO         =       0.040437


      Symmetry analysis of molecular orbitals - initial
      -------------------------------------------------

  Numbering of irreducible representations: 

     1 a1          2 a2          3 b1          4 b2      

  Orbital symmetries:

     1 a1          2 b2          3 a1          4 b1          5 a1      
     6 b2          7 b1          8 a1          9 a1         10 b2      
    11 a1         12 b2         13 a2         14 b1         15 a1      
    16 b1         17 a1         18 a1         19 b2         20 b1      
    21 a1         22 b2         23 a2         24 b1         25 a1      

   Time after variat. SCF:      4.9
   Time prior to 1st pass:      4.9
 Grid integrated density:      29.999991652481
 Requested integration accuracy:   0.10E-06

           Memory utilization after 1st SCF pass: 
           Heap Space remaining (MW):      131.03           131029058
          Stack Space remaining (MW):      131.06           131061516

   convergence    iter        energy       DeltaE   RMS-Dens  Diis-err    time
 ---------------- ----- ----------------- --------- --------- ---------  ------
 d= 0,ls=0.0,diis     1   -155.9267182414 -2.71D+02  1.44D-02  5.78D-01     6.3
 Grid integrated density:      29.999992726110
 Requested integration accuracy:   0.10E-06
 d= 0,ls=0.0,diis     2   -155.9699244613 -4.32D-02  8.15D-03  6.91D-02     7.5
 Grid integrated density:      29.999992556510
 Requested integration accuracy:   0.10E-06
 d= 0,ls=0.0,diis     3   -155.9733887264 -3.46D-03  2.21D-03  4.34D-02     8.9
 Grid integrated density:      29.999992588996
 Requested integration accuracy:   0.10E-06
 d= 0,ls=0.0,diis     4   -155.9788530134 -5.46D-03  3.99D-04  4.06D-04    10.3
 Grid integrated density:      29.999992612317
 Requested integration accuracy:   0.10E-06
 d= 0,ls=0.0,diis     5   -155.9788940802 -4.11D-05  1.61D-04  7.44D-05    12.0
 Grid integrated density:      29.999992607254
 Requested integration accuracy:   0.10E-06
  Resetting Diis
 d= 0,ls=0.0,diis     6   -155.9789040382 -9.96D-06  4.71D-05  1.37D-06    13.9
 Grid integrated density:      29.999992606630
 Requested integration accuracy:   0.10E-06
 d= 0,ls=0.0,diis     7   -155.9789042591 -2.21D-07  4.37D-06  1.49D-08    15.0
(nogshift,skip_gshiftAOev,done_Fji)=( 1,F,F)


         Total DFT energy =     -155.978904259054
      One electron energy =     -434.798628492750
           Coulomb energy =      188.029496184466
    Exchange-Corr. energy =      -23.893245824775
 Nuclear repulsion energy =      114.683473874006

       Scaling correction =        0.035100392184

 Numeric. integr. density =       29.999992606630

     Total iterative time =     10.2s



                  Occupations of the irreducible representations
                  ----------------------------------------------

                     irrep           alpha         beta
                     --------     --------     --------
                     a1                7.0          7.0
                     a2                1.0          1.0
                     b1                3.0          3.0
                     b2                4.0          4.0


 center of mass
 --------------
 x =   0.00000000 y =   0.00000000 z =  -0.03188166

 moments of inertia (a.u.)
 ------------------
         210.630594899678           0.000000000000           0.000000000000
           0.000000000000          90.160874220812           0.000000000000
           0.000000000000           0.000000000000         239.735596096280

            General Information
            -------------------
          SCF calculation type: DFT
          Wavefunction type:  closed shell.
          No. of atoms     :    10
          No. of electrons :    30
           Alpha electrons :    15
            Beta electrons :    15
          Charge           :     0
          Spin multiplicity:     1
          Use of symmetry is: on ; symmetry adaption is: on 
          Maximum number of iterations: ***
          This is a Direct SCF calculation.
          AO basis - number of functions:    70
                     number of shells:    46
          Convergence on energy requested:  1.00D-06
          Convergence on density requested:  1.00D-05
          Convergence on gradient requested:  5.00D-04

              XC Information
              --------------
                         B3LYP Method XC Potential
                     Hartree-Fock (Exact) Exchange  0.200          
                        Slater Exchange Functional  0.800 local    
                    Becke 1988 Exchange Functional  0.720 non-local
              Lee-Yang-Parr Correlation Functional  0.810          
                  VWN I RPA Correlation Functional  0.190 local    

             Grid Information
             ----------------
          Grid used for XC integration:  fine      
          Radial quadrature: Mura-Knowles        
          Angular quadrature: Lebedev. 
          Tag              B.-S. Rad. Rad. Pts. Rad. Cut. Ang. Pts.
          ---              ---------- --------- --------- ---------
          C                   0.70       70          10.0       590
          H                   0.35       60          11.0       590
          Grid pruning is: on 
          Number of quadrature shells:   320
          Spatial weights used:  Erf1

          Convergence Information
          -----------------------
          Convergence aids based upon iterative change in 
          total energy or number of iterations. 
          Levelshifting, if invoked, occurs when the 
          HOMO/LUMO gap drops below (HL_TOL):  1.00D-02
          DIIS, if invoked, will attempt to extrapolate 
          using up to (NFOCK): 10 stored Fock matrices.

                    Damping( 0%)  Levelshifting(0.5)       DIIS
                  --------------- ------------------- ---------------
          dE  on:    start            ASAP                start   
          dE off:    2 iters        *** iters           *** iters 


      Screening Tolerance Information
      -------------------------------
          Density screening/tol_rho:  1.00D-10
          AO Gaussian exp screening on grid/accAOfunc:  14
          CD Gaussian exp screening on grid/accCDfunc:  20
          XC Gaussian exp screening on grid/accXCfunc:  20
          Schwarz screening/accCoul:  1.00D-08



                            NWChem DFT Gradient Module
                            --------------------------


                               Molecule conformer 0



  charge          =   0.00
  wavefunction    = closed shell

  Using symmetry


                         DFT ENERGY GRADIENTS

    atom               coordinates                        gradient
                 x          y          z           x          y          z
   1 C       0.000000   2.365694  -0.410922    0.000000   0.026623   0.044398
   2 C      -1.452159   0.000000   0.266197    0.046519   0.000000  -0.066155
   3 C       1.452159   0.000000   0.266197   -0.046519   0.000000  -0.066155
   4 C       0.000000  -2.365694  -0.410922    0.000000  -0.026623   0.044398
   5 H       0.000000   2.803152  -2.462079    0.000000  -0.012168  -0.019854
   6 H       0.000000   3.854585   1.069087    0.000000   0.009450   0.020879
   7 H      -2.115719   0.000000   2.261340    0.008589   0.000000   0.020732
   8 H       2.115719   0.000000   2.261340   -0.008589   0.000000   0.020732
   9 H       0.000000  -2.803152  -2.462079    0.000000   0.012168  -0.019854
  10 H       0.000000  -3.854585   1.069087    0.000000  -0.009450   0.020879

                 ----------------------------------------
                 |  Time  |  1-e(secs)   |  2-e(secs)   |
                 ----------------------------------------
                 |  CPU   |       0.00   |       0.03   |
                 ----------------------------------------
                 |  WALL  |       0.00   |       0.03   |
                 ----------------------------------------
  no constraints, skipping    0.0000000000000000     

@ Step       Energy      Delta E   Gmax     Grms     Xrms     Xmax   Walltime
@ ---- ---------------- -------- -------- -------- -------- -------- --------
@    0    -155.97890426  0.0D+00  0.02142  0.00708  0.00000  0.00000     16.5
                                                                    



                                Z-matrix (autoz)
                                -------- 

 Units are Angstrom for bonds and degrees for angles

      Type          Name      I     J     K     L     M      Value     Gradient
      ----------- --------  ----- ----- ----- ----- ----- ---------- ----------
    1 Stretch                  1     2                       1.51198   -0.00497
    2 Stretch                  1     3                       1.51198   -0.00497
    3 Stretch                  1     5                       1.10984    0.01688
    4 Stretch                  1     6                       1.11092    0.02142
    5 Stretch                  2     3                       1.53690   -0.01781
    6 Stretch                  2     4                       1.51198   -0.00497
    7 Stretch                  2     7                       1.11265    0.01696
    8 Stretch                  3     4                       1.51198   -0.00497
    9 Stretch                  3     8                       1.11265    0.01696
   10 Stretch                  4     9                       1.10984    0.01688
   11 Stretch                  4    10                       1.11092    0.02142
   12 Bend                     1     2     3                59.45333    0.00490
   13 Bend                     1     2     4               111.78107    0.01174
   14 Bend                     1     2     7               112.66046   -0.00584
   15 Bend                     1     3     2                59.45333    0.00490
   16 Bend                     1     3     4               111.78107    0.01174
   17 Bend                     1     3     8               112.66046   -0.00584
   18 Bend                     2     1     3                61.09334   -0.00980
   19 Bend                     2     1     5               113.85802   -0.00153
   20 Bend                     2     1     6               114.84340    0.00185
   21 Bend                     2     3     4                59.45333    0.00490
   22 Bend                     2     3     8               108.39652   -0.00426
   23 Bend                     2     4     3                61.09334   -0.00980
   24 Bend                     2     4     9               113.85802   -0.00153
   25 Bend                     2     4    10               114.84340    0.00185
   26 Bend                     3     1     5               113.85802   -0.00153
   27 Bend                     3     1     6               114.84340    0.00185
   28 Bend                     3     2     4                59.45333    0.00490
   29 Bend                     3     2     7               108.39652   -0.00426
   30 Bend                     3     4     9               113.85802   -0.00153
   31 Bend                     3     4    10               114.84340    0.00185
   32 Bend                     4     2     7               112.66046   -0.00584
   33 Bend                     4     3     8               112.66046   -0.00584
   34 Bend                     5     1     6               122.78926    0.00277
   35 Bend                     9     4    10               122.78926    0.00277
   36 Torsion                  1     2     3     4        -148.05521   -0.00757
   37 Torsion                  1     2     3     8         105.97239   -0.00379
   38 Torsion                  1     2     4     3          29.38678   -0.00257
   39 Torsion                  1     2     4     9         -75.74252    0.00158
   40 Torsion                  1     2     4    10         135.24315   -0.00437
   41 Torsion                  1     3     2     4         148.05521    0.00757
   42 Torsion                  1     3     2     7        -105.97239    0.00379
   43 Torsion                  1     3     4     2         -29.38678    0.00257
   44 Torsion                  1     3     4     9          75.74252   -0.00158
   45 Torsion                  1     3     4    10        -135.24315    0.00437
   46 Torsion                  2     1     3     4          29.38678   -0.00257
   47 Torsion                  2     1     3     8         -98.66864    0.00041
   48 Torsion                  2     3     1     5        -105.12929    0.00415
   49 Torsion                  2     3     1     6         105.85638   -0.00180
   50 Torsion                  2     3     4     9         105.12929   -0.00415
   51 Torsion                  2     3     4    10        -105.85638    0.00180
   52 Torsion                  2     4     3     8          98.66864   -0.00041
   53 Torsion                  3     1     2     4         -29.38678    0.00257
   54 Torsion                  3     1     2     7          98.66864   -0.00041
   55 Torsion                  3     2     1     5         105.12929   -0.00415
   56 Torsion                  3     2     1     6        -105.85638    0.00180
   57 Torsion                  3     2     4     9        -105.12929    0.00415
   58 Torsion                  3     2     4    10         105.85638   -0.00180
   59 Torsion                  3     4     2     7         -98.66864    0.00041
   60 Torsion                  4     2     1     5          75.74252   -0.00158
   61 Torsion                  4     2     1     6        -135.24315    0.00437
   62 Torsion                  4     2     3     8        -105.97239    0.00379
   63 Torsion                  4     3     1     5         -75.74252    0.00158
   64 Torsion                  4     3     1     6         135.24315   -0.00437
   65 Torsion                  4     3     2     7         105.97239   -0.00379
   66 Torsion                  5     1     2     7        -156.20207   -0.00455
   67 Torsion                  5     1     3     8         156.20207    0.00455
   68 Torsion                  6     1     2     7          -7.18773    0.00140
   69 Torsion                  6     1     3     8           7.18773   -0.00140
   70 Torsion                  7     2     3     8           0.00000    0.00000
   71 Torsion                  7     2     4     9         156.20207    0.00455
   72 Torsion                  7     2     4    10           7.18773   -0.00140
   73 Torsion                  8     3     4     9        -156.20207   -0.00455
   74 Torsion                  8     3     4    10          -7.18773    0.00140

 Restricting large step in mode    7 eval= 3.6D-02 step= 4.3D-01 new= 3.0D-01
 Restricting large step in mode   12 eval= 4.3D-02 step=-3.5D-01 new=-3.0D-01
  no constraints, skipping    0.0000000000000000     
  no constraints, skipping    0.0000000000000000     
  no constraints, skipping    0.0000000000000000     
  no constraints, skipping    0.0000000000000000     
  no constraints, skipping    0.0000000000000000     
  no constraints, skipping    0.0000000000000000     
  no constraints, skipping    0.0000000000000000     
  no constraints, skipping    0.0000000000000000     

                                 NWChem DFT Module
                                 -----------------


                               Molecule conformer 0




 Summary of "ao basis" -> "ao basis" (spherical)
 ------------------------------------------------------------------------------
       Tag                 Description            Shells   Functions and Types
 ---------------- ------------------------------  ------  ---------------------
 C                           6-311G                  7       13   4s3p
 H                           6-311G                  3        3   3s


      Symmetry analysis of basis
      --------------------------

        a1         29
        a2          6
        b1         16
        b2         19

  Caching 1-el integrals 

            General Information
            -------------------
          SCF calculation type: DFT
          Wavefunction type:  closed shell.
          No. of atoms     :    10
          No. of electrons :    30
           Alpha electrons :    15
            Beta electrons :    15
          Charge           :     0
          Spin multiplicity:     1
          Use of symmetry is: on ; symmetry adaption is: on 
          Maximum number of iterations: ***
          This is a Direct SCF calculation.
          AO basis - number of functions:    70
                     number of shells:    46
          Convergence on energy requested:  1.00D-06
          Convergence on density requested:  1.00D-05
          Convergence on gradient requested:  5.00D-04

              XC Information
              --------------
                         B3LYP Method XC Potential
                     Hartree-Fock (Exact) Exchange  0.200          
                        Slater Exchange Functional  0.800 local    
                    Becke 1988 Exchange Functional  0.720 non-local
              Lee-Yang-Parr Correlation Functional  0.810          
                  VWN I RPA Correlation Functional  0.190 local    

             Grid Information
             ----------------
          Grid used for XC integration:  fine      
          Radial quadrature: Mura-Knowles        
          Angular quadrature: Lebedev. 
          Tag              B.-S. Rad. Rad. Pts. Rad. Cut. Ang. Pts.
          ---              ---------- --------- --------- ---------
          C                   0.70       70          10.0       590
          H                   0.35       60          11.0       590
          Grid pruning is: on 
          Number of quadrature shells:   320
          Spatial weights used:  Erf1

          Convergence Information
          -----------------------
          Convergence aids based upon iterative change in 
          total energy or number of iterations. 
          Levelshifting, if invoked, occurs when the 
          HOMO/LUMO gap drops below (HL_TOL):  1.00D-02
          DIIS, if invoked, will attempt to extrapolate 
          using up to (NFOCK): 10 stored Fock matrices.

                    Damping( 0%)  Levelshifting(0.5)       DIIS
                  --------------- ------------------- ---------------
          dE  on:    start            ASAP                start   
          dE off:    2 iters        *** iters           *** iters 


      Screening Tolerance Information
      -------------------------------
          Density screening/tol_rho:  1.00D-10
          AO Gaussian exp screening on grid/accAOfunc:  14
          CD Gaussian exp screening on grid/accCDfunc:  20
          XC Gaussian exp screening on grid/accXCfunc:  20
          Schwarz screening/accCoul:  1.00D-08

          Performing ZORA calculations
          ----------------------------


      Superposition of Atomic Density Guess
      -------------------------------------

 Sum of atomic energies:        -153.67306699

 Read atomic ZORA corrections from ./C1C2C1C2_mol_6_conformer_0.zora_sf

 Forcing recalculation of ZORA corrections
       Generating atomic ZORA corrections
       ----------------------------------

 In dft_scf:: zora:Knucl= F

 Grid_pts file          = ./C1C2C1C2_mol_6_conformer_0.gridpts.00
 Record size in doubles =  12289        No. of grid_pts per rec  =   3070
 Max. records in memory =      3        Max. recs in file   =     13557

 Grid integrated density:      29.999992835980
 Requested integration accuracy:   0.10E-06

 Wrote atomic ZORA corrections to ./C1C2C1C2_mol_6_conformer_0.zora_sf


 Loading old vectors from job with title :

Molecule conformer 0


      Symmetry analysis of molecular orbitals - initial
      -------------------------------------------------

  Numbering of irreducible representations: 

     1 a1          2 a2          3 b1          4 b2      

  Orbital symmetries:

     1 b2          2 a1          3 a1          4 b1          5 a1      
     6 b2          7 a1          8 b1          9 a1         10 b2      
    11 b2         12 a1         13 a2         14 b1         15 a1      
    16 a1         17 b1         18 a1         19 b2         20 b1      
    21 b2         22 a1         23 a2         24 b1         25 a1      

   Time after variat. SCF:     23.2
   Time prior to 1st pass:     23.2

           Memory utilization after 1st SCF pass: 
           Heap Space remaining (MW):      131.03           131029058
          Stack Space remaining (MW):      131.06           131061516

   convergence    iter        energy       DeltaE   RMS-Dens  Diis-err    time
 ---------------- ----- ----------------- --------- --------- ---------  ------
 d= 0,ls=0.0,diis     1   -155.9945678572 -2.71D+02  3.38D-03  2.05D-02    25.0
 d= 0,ls=0.0,diis     2   -155.9979065771 -3.34D-03  7.88D-04  1.97D-03    26.7
 d= 0,ls=0.0,diis     3   -155.9979833156 -7.67D-05  3.88D-04  1.51D-03    28.4
 d= 0,ls=0.0,diis     4   -155.9981755294 -1.92D-04  4.14D-05  7.00D-06    30.2
 d= 0,ls=0.0,diis     5   -155.9981760524 -5.23D-07  2.29D-05  2.71D-06    31.8
 d= 0,ls=0.0,diis     6   -155.9981763975 -3.45D-07  5.43D-06  3.95D-08    33.3
(nogshift,skip_gshiftAOev,done_Fji)=( 1,F,F)


         Total DFT energy =     -155.998176397495
      One electron energy =     -435.543747940860
           Coulomb energy =      188.455643281193
    Exchange-Corr. energy =      -23.946392594353
 Nuclear repulsion energy =      115.036320856526

       Scaling correction =        0.035077383917

 Numeric. integr. density =       29.999997198466

     Total iterative time =     10.2s



                  Occupations of the irreducible representations
                  ----------------------------------------------

                     irrep           alpha         beta
                     --------     --------     --------
                     a1                7.0          7.0
                     a2                1.0          1.0
                     b1                3.0          3.0
                     b2                4.0          4.0


 center of mass
 --------------
 x =   0.00000000 y =  -0.00000000 z =  -0.00504998

 moments of inertia (a.u.)
 ------------------
         202.552021487876           0.000000000000           0.000000000000
           0.000000000000          95.391642954275           0.000000000000
           0.000000000000           0.000000000000         235.878396134936
 Line search: 
     step= 1.00 grad=-2.6D-02 hess= 7.1D-03 energy=   -155.998176 mode=downhill
 new step= 1.86                   predicted energy=   -156.003455
  no constraints, skipping    0.0000000000000000     
  no constraints, skipping    0.0000000000000000     
  no constraints, skipping    0.0000000000000000     
  no constraints, skipping    0.0000000000000000     
  no constraints, skipping    0.0000000000000000     
  no constraints, skipping    0.0000000000000000     
  no constraints, skipping    0.0000000000000000     
  no constraints, skipping    0.0000000000000000     

          --------
          Step   1
          --------


                         Geometry "geometry" -> "geometry"
                         ---------------------------------

 Output coordinates in angstroms (scale by  1.889725989 to convert to a.u.)

  No.       Tag          Charge          X              Y              Z
 ---- ---------------- ---------- -------------- -------------- --------------
    1 C                    6.0000     0.00000000     1.18877340    -0.22570130
    2 C                    6.0000    -0.82188490     0.00000000     0.21491271
    3 C                    6.0000     0.82188490     0.00000000     0.21491271
    4 C                    6.0000     0.00000000    -1.18877340    -0.22570130
    5 H                    1.0000     0.00000000     1.41341612    -1.26148302
    6 H                    1.0000     0.00000000     1.98864546     0.45044629
    7 H                    1.0000    -1.20709186     0.00000000     1.20475029
    8 H                    1.0000     1.20709186     0.00000000     1.20475029
    9 H                    1.0000     0.00000000    -1.41341612    -1.26148302
   10 H                    1.0000     0.00000000    -1.98864546     0.45044629

      Atomic Mass 
      ----------- 

      C                 12.000000
      H                  1.007825


 Effective nuclear repulsion energy (a.u.)     115.4188116635

            Nuclear Dipole moment (a.u.) 
            ----------------------------
        X                 Y               Z
 ---------------- ---------------- ----------------
     0.0000000000     0.0000000000     1.2433719003

      Symmetry information
      --------------------

 Group name             C2v       
 Group number             16
 Group order               4
 No. of unique centers     5

      Symmetry unique atoms

     1    2    5    6    7


                                 NWChem DFT Module
                                 -----------------


                               Molecule conformer 0




 Summary of "ao basis" -> "ao basis" (spherical)
 ------------------------------------------------------------------------------
       Tag                 Description            Shells   Functions and Types
 ---------------- ------------------------------  ------  ---------------------
 C                           6-311G                  7       13   4s3p
 H                           6-311G                  3        3   3s


      Symmetry analysis of basis
      --------------------------

        a1         29
        a2          6
        b1         16
        b2         19

  Caching 1-el integrals 

            General Information
            -------------------
          SCF calculation type: DFT
          Wavefunction type:  closed shell.
          No. of atoms     :    10
          No. of electrons :    30
           Alpha electrons :    15
            Beta electrons :    15
          Charge           :     0
          Spin multiplicity:     1
          Use of symmetry is: on ; symmetry adaption is: on 
          Maximum number of iterations: ***
          This is a Direct SCF calculation.
          AO basis - number of functions:    70
                     number of shells:    46
          Convergence on energy requested:  1.00D-06
          Convergence on density requested:  1.00D-05
          Convergence on gradient requested:  5.00D-04

              XC Information
              --------------
                         B3LYP Method XC Potential
                     Hartree-Fock (Exact) Exchange  0.200          
                        Slater Exchange Functional  0.800 local    
                    Becke 1988 Exchange Functional  0.720 non-local
              Lee-Yang-Parr Correlation Functional  0.810          
                  VWN I RPA Correlation Functional  0.190 local    

             Grid Information
             ----------------
          Grid used for XC integration:  fine      
          Radial quadrature: Mura-Knowles        
          Angular quadrature: Lebedev. 
          Tag              B.-S. Rad. Rad. Pts. Rad. Cut. Ang. Pts.
          ---              ---------- --------- --------- ---------
          C                   0.70       70          10.0       590
          H                   0.35       60          11.0       590
          Grid pruning is: on 
          Number of quadrature shells:   320
          Spatial weights used:  Erf1

          Convergence Information
          -----------------------
          Convergence aids based upon iterative change in 
          total energy or number of iterations. 
          Levelshifting, if invoked, occurs when the 
          HOMO/LUMO gap drops below (HL_TOL):  1.00D-02
          DIIS, if invoked, will attempt to extrapolate 
          using up to (NFOCK): 10 stored Fock matrices.

                    Damping( 0%)  Levelshifting(0.5)       DIIS
                  --------------- ------------------- ---------------
          dE  on:    start            ASAP                start   
          dE off:    2 iters        *** iters           *** iters 


      Screening Tolerance Information
      -------------------------------
          Density screening/tol_rho:  1.00D-10
          AO Gaussian exp screening on grid/accAOfunc:  14
          CD Gaussian exp screening on grid/accCDfunc:  20
          XC Gaussian exp screening on grid/accXCfunc:  20
          Schwarz screening/accCoul:  1.00D-08

          Performing ZORA calculations
          ----------------------------


      Superposition of Atomic Density Guess
      -------------------------------------

 Sum of atomic energies:        -153.67306699

 Read atomic ZORA corrections from ./C1C2C1C2_mol_6_conformer_0.zora_sf

 Forcing recalculation of ZORA corrections
       Generating atomic ZORA corrections
       ----------------------------------

 In dft_scf:: zora:Knucl= F

 Grid_pts file          = ./C1C2C1C2_mol_6_conformer_0.gridpts.00
 Record size in doubles =  12289        No. of grid_pts per rec  =   3070
 Max. records in memory =      3        Max. recs in file   =     13557


 Wrote atomic ZORA corrections to ./C1C2C1C2_mol_6_conformer_0.zora_sf


 Loading old vectors from job with title :

Molecule conformer 0


      Symmetry analysis of molecular orbitals - initial
      -------------------------------------------------

  Numbering of irreducible representations: 

     1 a1          2 a2          3 b1          4 b2      

  Orbital symmetries:

     1 b2          2 a1          3 a1          4 b1          5 a1      
     6 b2          7 a1          8 b1          9 a1         10 b2      
    11 a1         12 b2         13 a2         14 b1         15 a1      
    16 b1         17 a1         18 a1         19 b2         20 b1      
    21 b2         22 a1         23 b1         24 a2         25 b2      

   Time after variat. SCF:     41.0
   Time prior to 1st pass:     41.0

           Memory utilization after 1st SCF pass: 
           Heap Space remaining (MW):      131.03           131029058
          Stack Space remaining (MW):      131.06           131061516

   convergence    iter        energy       DeltaE   RMS-Dens  Diis-err    time
 ---------------- ----- ----------------- --------- --------- ---------  ------
 d= 0,ls=0.0,diis     1   -156.0006037895 -2.71D+02  2.54D-03  1.49D-02    42.8
 d= 0,ls=0.0,diis     2   -156.0030707954 -2.47D-03  6.41D-04  1.30D-03    44.5
 d= 0,ls=0.0,diis     3   -156.0031241001 -5.33D-05  3.06D-04  9.84D-04    46.3
 d= 0,ls=0.0,diis     4   -156.0032488821 -1.25D-04  3.46D-05  4.57D-06    48.0
 d= 0,ls=0.0,diis     5   -156.0032492683 -3.86D-07  1.62D-05  1.47D-06    49.6
 d= 0,ls=0.0,diis     6   -156.0032494526 -1.84D-07  4.28D-06  3.33D-08    51.3
(nogshift,skip_gshiftAOev,done_Fji)=( 1,F,F)


         Total DFT energy =     -156.003249452613
      One electron energy =     -436.315852222528
           Coulomb energy =      188.889602519655
    Exchange-Corr. energy =      -23.995811413194
 Nuclear repulsion energy =      115.418811663453

       Scaling correction =        0.035057494283

 Numeric. integr. density =       30.000000839264

     Total iterative time =     10.4s



                  Occupations of the irreducible representations
                  ----------------------------------------------

                     irrep           alpha         beta
                     --------     --------     --------
                     a1                7.0          7.0
                     a2                1.0          1.0
                     b1                3.0          3.0
                     b2                4.0          4.0


 center of mass
 --------------
 x =   0.00000000 y =   0.00000000 z =   0.01869423

 moments of inertia (a.u.)
 ------------------
         195.631331020029           0.000000000000           0.000000000000
           0.000000000000         100.049578216264           0.000000000000
           0.000000000000           0.000000000000         232.345085666939

            General Information
            -------------------
          SCF calculation type: DFT
          Wavefunction type:  closed shell.
          No. of atoms     :    10
          No. of electrons :    30
           Alpha electrons :    15
            Beta electrons :    15
          Charge           :     0
          Spin multiplicity:     1
          Use of symmetry is: on ; symmetry adaption is: on 
          Maximum number of iterations: ***
          This is a Direct SCF calculation.
          AO basis - number of functions:    70
                     number of shells:    46
          Convergence on energy requested:  1.00D-06
          Convergence on density requested:  1.00D-05
          Convergence on gradient requested:  5.00D-04

              XC Information
              --------------
                         B3LYP Method XC Potential
                     Hartree-Fock (Exact) Exchange  0.200          
                        Slater Exchange Functional  0.800 local    
                    Becke 1988 Exchange Functional  0.720 non-local
              Lee-Yang-Parr Correlation Functional  0.810          
                  VWN I RPA Correlation Functional  0.190 local    

             Grid Information
             ----------------
          Grid used for XC integration:  fine      
          Radial quadrature: Mura-Knowles        
          Angular quadrature: Lebedev. 
          Tag              B.-S. Rad. Rad. Pts. Rad. Cut. Ang. Pts.
          ---              ---------- --------- --------- ---------
          C                   0.70       70          10.0       590
          H                   0.35       60          11.0       590
          Grid pruning is: on 
          Number of quadrature shells:   320
          Spatial weights used:  Erf1

          Convergence Information
          -----------------------
          Convergence aids based upon iterative change in 
          total energy or number of iterations. 
          Levelshifting, if invoked, occurs when the 
          HOMO/LUMO gap drops below (HL_TOL):  1.00D-02
          DIIS, if invoked, will attempt to extrapolate 
          using up to (NFOCK): 10 stored Fock matrices.

                    Damping( 0%)  Levelshifting(0.5)       DIIS
                  --------------- ------------------- ---------------
          dE  on:    start            ASAP                start   
          dE off:    2 iters        *** iters           *** iters 


      Screening Tolerance Information
      -------------------------------
          Density screening/tol_rho:  1.00D-10
          AO Gaussian exp screening on grid/accAOfunc:  14
          CD Gaussian exp screening on grid/accCDfunc:  20
          XC Gaussian exp screening on grid/accXCfunc:  20
          Schwarz screening/accCoul:  1.00D-08



                            NWChem DFT Gradient Module
                            --------------------------


                               Molecule conformer 0



  charge          =   0.00
  wavefunction    = closed shell

  Using symmetry


                         DFT ENERGY GRADIENTS

    atom               coordinates                        gradient
                 x          y          z           x          y          z
   1 C       0.000000   2.246456  -0.426514    0.000000   0.038506   0.015744
   2 C      -1.553137   0.000000   0.406126   -0.012919   0.000000  -0.010036
   3 C       1.553137   0.000000   0.406126    0.012919   0.000000  -0.010036
   4 C       0.000000  -2.246456  -0.426514   -0.000000  -0.038506   0.015744
   5 H       0.000000   2.670969  -2.383857    0.000000  -0.009639   0.015169
   6 H       0.000000   3.757995   0.851220    0.000000  -0.024666  -0.010393
   7 H      -2.281073   0.000000   2.276648    0.010983   0.000000  -0.010484
   8 H       2.281073   0.000000   2.276648   -0.010983   0.000000  -0.010484
   9 H       0.000000  -2.670969  -2.383857    0.000000   0.009639   0.015169
  10 H       0.000000  -3.757995   0.851220    0.000000   0.024666  -0.010393

                 ----------------------------------------
                 |  Time  |  1-e(secs)   |  2-e(secs)   |
                 ----------------------------------------
                 |  CPU   |       0.00   |       0.03   |
                 ----------------------------------------
                 |  WALL  |       0.00   |       0.03   |
                 ----------------------------------------
  no constraints, skipping    0.0000000000000000     

  Step       Energy      Delta E   Gmax     Grms     Xrms     Xmax   Walltime
  ---- ---------------- -------- -------- -------- -------- -------- --------
@    1    -156.00324945 -2.4D-02  0.02555  0.00568  0.10091  0.21822     53.0
                                                                    



                                Z-matrix (autoz)
                                -------- 

 Units are Angstrom for bonds and degrees for angles

      Type          Name      I     J     K     L     M      Value     Gradient
      ----------- --------  ----- ----- ----- ----- ----- ---------- ----------
    1 Stretch                  1     2                       1.51090   -0.00068
    2 Stretch                  1     3                       1.51090   -0.00068
    3 Stretch                  1     5                       1.05986   -0.01687
    4 Stretch                  1     6                       1.04736   -0.02555
    5 Stretch                  2     3                       1.64377   -0.00051
    6 Stretch                  2     4                       1.51090   -0.00068
    7 Stretch                  2     7                       1.06215   -0.01375
    8 Stretch                  3     4                       1.51090   -0.00068
    9 Stretch                  3     8                       1.06215   -0.01375
   10 Stretch                  4     9                       1.05986   -0.01687
   11 Stretch                  4    10                       1.04736   -0.02555
   12 Bend                     1     2     3                57.04566   -0.00009
   13 Bend                     1     2     4               103.77463    0.00123
   14 Bend                     1     2     7               117.97263   -0.00173
   15 Bend                     1     3     2                57.04566   -0.00009
   16 Bend                     1     3     4               103.77463    0.00123
   17 Bend                     1     3     8               117.97263   -0.00173
   18 Bend                     2     1     3                65.90869    0.00018
   19 Bend                     2     1     5               116.85687   -0.00127
   20 Bend                     2     1     6               114.36918   -0.00082
   21 Bend                     2     3     4                57.04566   -0.00009
   22 Bend                     2     3     8               111.26409   -0.00118
   23 Bend                     2     4     3                65.90869    0.00018
   24 Bend                     2     4     9               116.85687   -0.00127
   25 Bend                     2     4    10               114.36918   -0.00082
   26 Bend                     3     1     5               116.85687   -0.00127
   27 Bend                     3     1     6               114.36918   -0.00082
   28 Bend                     3     2     4                57.04566   -0.00009
   29 Bend                     3     2     7               111.26409   -0.00118
   30 Bend                     3     4     9               116.85687   -0.00127
   31 Bend                     3     4    10               114.36918   -0.00082
   32 Bend                     4     2     7               117.97263   -0.00173
   33 Bend                     4     3     8               117.97263   -0.00173
   34 Bend                     5     1     6               117.97157    0.00255
   35 Bend                     9     4    10               117.97157    0.00255
   36 Torsion                  1     2     3     4        -139.32596   -0.00292
   37 Torsion                  1     2     3     8         110.33702   -0.00146
   38 Torsion                  1     2     4     3          34.26939   -0.00215
   39 Torsion                  1     2     4     9         -74.89474   -0.00112
   40 Torsion                  1     2     4    10         141.34602   -0.00275
   41 Torsion                  1     3     2     4         139.32596    0.00292
   42 Torsion                  1     3     2     7        -110.33702    0.00146
   43 Torsion                  1     3     4     2         -34.26939    0.00215
   44 Torsion                  1     3     4     9          74.89474    0.00112
   45 Torsion                  1     3     4    10        -141.34602    0.00275
   46 Torsion                  2     1     3     4          34.26939   -0.00215
   47 Torsion                  2     1     3     8         -98.34215    0.00053
   48 Torsion                  2     3     1     5        -109.16414    0.00103
   49 Torsion                  2     3     1     6         107.07662   -0.00061
   50 Torsion                  2     3     4     9         109.16414   -0.00103
   51 Torsion                  2     3     4    10        -107.07662    0.00061
   52 Torsion                  2     4     3     8          98.34215   -0.00053
   53 Torsion                  3     1     2     4         -34.26939    0.00215
   54 Torsion                  3     1     2     7          98.34215   -0.00053
   55 Torsion                  3     2     1     5         109.16414   -0.00103
   56 Torsion                  3     2     1     6        -107.07662    0.00061
   57 Torsion                  3     2     4     9        -109.16414    0.00103
   58 Torsion                  3     2     4    10         107.07662   -0.00061
   59 Torsion                  3     4     2     7         -98.34215    0.00053
   60 Torsion                  4     2     1     5          74.89474    0.00112
   61 Torsion                  4     2     1     6        -141.34602    0.00275
   62 Torsion                  4     2     3     8        -110.33702    0.00146
   63 Torsion                  4     3     1     5         -74.89474   -0.00112
   64 Torsion                  4     3     1     6         141.34602   -0.00275
   65 Torsion                  4     3     2     7         110.33702   -0.00146
   66 Torsion                  5     1     2     7        -152.49371   -0.00156
   67 Torsion                  5     1     3     8         152.49371    0.00156
   68 Torsion                  6     1     2     7          -8.73447    0.00007
   69 Torsion                  6     1     3     8           8.73447   -0.00007
   70 Torsion                  7     2     3     8           0.00000    0.00000
   71 Torsion                  7     2     4     9         152.49371    0.00156
   72 Torsion                  7     2     4    10           8.73447   -0.00007
   73 Torsion                  8     3     4     9        -152.49371   -0.00156
   74 Torsion                  8     3     4    10          -8.73447    0.00007

 Restricting large step in mode    1 eval= 2.0D-02 step= 4.7D-01 new= 3.0D-01
  no constraints, skipping    0.0000000000000000     
  no constraints, skipping    0.0000000000000000     
  no constraints, skipping    0.0000000000000000     
  no constraints, skipping    0.0000000000000000     
  no constraints, skipping    0.0000000000000000     
  no constraints, skipping    0.0000000000000000     
  no constraints, skipping    0.0000000000000000     
  no constraints, skipping    0.0000000000000000     

                                 NWChem DFT Module
                                 -----------------


                               Molecule conformer 0




 Summary of "ao basis" -> "ao basis" (spherical)
 ------------------------------------------------------------------------------
       Tag                 Description            Shells   Functions and Types
 ---------------- ------------------------------  ------  ---------------------
 C                           6-311G                  7       13   4s3p
 H                           6-311G                  3        3   3s


      Symmetry analysis of basis
      --------------------------

        a1         29
        a2          6
        b1         16
        b2         19

  Caching 1-el integrals 

            General Information
            -------------------
          SCF calculation type: DFT
          Wavefunction type:  closed shell.
          No. of atoms     :    10
          No. of electrons :    30
           Alpha electrons :    15
            Beta electrons :    15
          Charge           :     0
          Spin multiplicity:     1
          Use of symmetry is: on ; symmetry adaption is: on 
          Maximum number of iterations: ***
          This is a Direct SCF calculation.
          AO basis - number of functions:    70
                     number of shells:    46
          Convergence on energy requested:  1.00D-06
          Convergence on density requested:  1.00D-05
          Convergence on gradient requested:  5.00D-04

              XC Information
              --------------
                         B3LYP Method XC Potential
                     Hartree-Fock (Exact) Exchange  0.200          
                        Slater Exchange Functional  0.800 local    
                    Becke 1988 Exchange Functional  0.720 non-local
              Lee-Yang-Parr Correlation Functional  0.810          
                  VWN I RPA Correlation Functional  0.190 local    

             Grid Information
             ----------------
          Grid used for XC integration:  fine      
          Radial quadrature: Mura-Knowles        
          Angular quadrature: Lebedev. 
          Tag              B.-S. Rad. Rad. Pts. Rad. Cut. Ang. Pts.
          ---              ---------- --------- --------- ---------
          C                   0.70       70          10.0       590
          H                   0.35       60          11.0       590
          Grid pruning is: on 
          Number of quadrature shells:   320
          Spatial weights used:  Erf1

          Convergence Information
          -----------------------
          Convergence aids based upon iterative change in 
          total energy or number of iterations. 
          Levelshifting, if invoked, occurs when the 
          HOMO/LUMO gap drops below (HL_TOL):  1.00D-02
          DIIS, if invoked, will attempt to extrapolate 
          using up to (NFOCK): 10 stored Fock matrices.

                    Damping( 0%)  Levelshifting(0.5)       DIIS
                  --------------- ------------------- ---------------
          dE  on:    start            ASAP                start   
          dE off:    2 iters        *** iters           *** iters 


      Screening Tolerance Information
      -------------------------------
          Density screening/tol_rho:  1.00D-10
          AO Gaussian exp screening on grid/accAOfunc:  14
          CD Gaussian exp screening on grid/accCDfunc:  20
          XC Gaussian exp screening on grid/accXCfunc:  20
          Schwarz screening/accCoul:  1.00D-08

          Performing ZORA calculations
          ----------------------------


      Superposition of Atomic Density Guess
      -------------------------------------

 Sum of atomic energies:        -153.67306699

 Read atomic ZORA corrections from ./C1C2C1C2_mol_6_conformer_0.zora_sf

 Forcing recalculation of ZORA corrections
       Generating atomic ZORA corrections
       ----------------------------------

 In dft_scf:: zora:Knucl= F

 Grid_pts file          = ./C1C2C1C2_mol_6_conformer_0.gridpts.00
 Record size in doubles =  12289        No. of grid_pts per rec  =   3070
 Max. records in memory =      3        Max. recs in file   =     13557


 Wrote atomic ZORA corrections to ./C1C2C1C2_mol_6_conformer_0.zora_sf


 Loading old vectors from job with title :

Molecule conformer 0


      Symmetry analysis of molecular orbitals - initial
      -------------------------------------------------

  Numbering of irreducible representations: 

     1 a1          2 a2          3 b1          4 b2      

  Orbital symmetries:

     1 a1          2 b1          3 b2          4 a1          5 a1      
     6 b2          7 b1          8 a1          9 a1         10 b2      
    11 a1         12 b2         13 a2         14 b1         15 a1      
    16 b1         17 a1         18 a1         19 b2         20 b1      
    21 b2         22 a1         23 b1         24 a2         25 b2      

   Time after variat. SCF:     60.3
   Time prior to 1st pass:     60.3

           Memory utilization after 1st SCF pass: 
           Heap Space remaining (MW):      131.03           131029058
          Stack Space remaining (MW):      131.06           131061516

   convergence    iter        energy       DeltaE   RMS-Dens  Diis-err    time
 ---------------- ----- ----------------- --------- --------- ---------  ------
 d= 0,ls=0.0,diis     1   -156.0080448297 -2.71D+02  1.93D-03  7.03D-03    61.8
 d= 0,ls=0.0,diis     2   -156.0089734610 -9.29D-04  7.34D-04  1.52D-03    63.3
 d= 0,ls=0.0,diis     3   -156.0090824238 -1.09D-04  2.32D-04  7.30D-04    65.1
 d= 0,ls=0.0,diis     4   -156.0091710955 -8.87D-05  5.04D-05  3.94D-06    66.7
 d= 0,ls=0.0,diis     5   -156.0091715330 -4.38D-07  1.56D-05  9.70D-07    68.5
 d= 0,ls=0.0,diis     6   -156.0091716584 -1.25D-07  6.39D-06  1.96D-08    70.2
(nogshift,skip_gshiftAOev,done_Fji)=( 1,F,F)


         Total DFT energy =     -156.009171658385
      One electron energy =     -434.967458846714
           Coulomb energy =      188.196307351368
    Exchange-Corr. energy =      -23.941909826164
 Nuclear repulsion energy =      114.703889663124

       Scaling correction =        0.035068233704

 Numeric. integr. density =       29.999999075508

     Total iterative time =     10.0s



                  Occupations of the irreducible representations
                  ----------------------------------------------

                     irrep           alpha         beta
                     --------     --------     --------
                     a1                7.0          7.0
                     a2                1.0          1.0
                     b1                3.0          3.0
                     b2                4.0          4.0


 center of mass
 --------------
 x =   0.00000000 y =   0.00000000 z =   0.02899847

 moments of inertia (a.u.)
 ------------------
         196.078556707926           0.000000000000           0.000000000000
           0.000000000000         102.962512116119           0.000000000000
           0.000000000000           0.000000000000         232.071244619489
 Line search: 
     step= 1.00 grad=-8.6D-03 hess= 2.6D-03 energy=   -156.009172 mode=downhill
 new step= 1.62                   predicted energy=   -156.010182
  no constraints, skipping    0.0000000000000000     
  no constraints, skipping    0.0000000000000000     
  no constraints, skipping    0.0000000000000000     
  no constraints, skipping    0.0000000000000000     
  no constraints, skipping    0.0000000000000000     
  no constraints, skipping    0.0000000000000000     
  no constraints, skipping    0.0000000000000000     
  no constraints, skipping    0.0000000000000000     

          --------
          Step   2
          --------


                         Geometry "geometry" -> "geometry"
                         ---------------------------------

 Output coordinates in angstroms (scale by  1.889725989 to convert to a.u.)

  No.       Tag          Charge          X              Y              Z
 ---- ---------------- ---------- -------------- -------------- --------------
    1 C                    6.0000     0.00000000     1.17096646    -0.23588796
    2 C                    6.0000    -0.82847972     0.00000000     0.24745326
    3 C                    6.0000     0.82847972     0.00000000     0.24745326
    4 C                    6.0000     0.00000000    -1.17096646    -0.23588796
    5 H                    1.0000     0.00000000     1.40086078    -1.30202981
    6 H                    1.0000     0.00000000     2.04407831     0.42692112
    7 H                    1.0000    -1.25373157     0.00000000     1.24646837
    8 H                    1.0000     1.25373157     0.00000000     1.24646837
    9 H                    1.0000     0.00000000    -1.40086078    -1.30202981
   10 H                    1.0000     0.00000000    -2.04407831     0.42692112

      Atomic Mass 
      ----------- 

      C                 12.000000
      H                  1.007825


 Effective nuclear repulsion energy (a.u.)     114.2769691272

            Nuclear Dipole moment (a.u.) 
            ----------------------------
        X                 Y               Z
 ---------------- ---------------- ----------------
     0.0000000000     0.0000000000     1.6657989727

      Symmetry information
[...]
(dia2,par1)(k,t,iat1,spin)=(  2,  2,  9,  1)=(     6.37435843,     6.37435843,     1.14714172,     1.14714172) ppm
(dia2,par1)(k,t,iat1,spin)=(  3,  2,  9,  1)=(    -0.73561933,    -0.73561933,     2.30599476,     2.30599476) ppm
(dia2,par1)(k,t,iat1,spin)=(  1,  3,  9,  1)=(     0.00071286,     0.00071286,    -0.00046541,    -0.00046541) ppm
(dia2,par1)(k,t,iat1,spin)=(  2,  3,  9,  1)=(    -2.25472558,    -2.25472558,    -0.47432773,    -0.47432773) ppm
(dia2,par1)(k,t,iat1,spin)=(  3,  3,  9,  1)=(    -0.79238046,    -0.79238046,    -2.70451619,    -2.70451619) ppm
 Grid integrated density:      30.000003893169
 Requested integration accuracy:   0.10E-06
dia1(k,t,iat1,ispin)=(  1,  1, 10,  1)=(    18.12752913,    18.12752913) ppm
dia1(k,t,iat1,ispin)=(  1,  2, 10,  1)=(    -0.00185168,    -0.00185168) ppm
dia1(k,t,iat1,ispin)=(  1,  3, 10,  1)=(    -0.00140155,    -0.00140155) ppm
dia1(k,t,iat1,ispin)=(  2,  1, 10,  1)=(    -0.00401698,    -0.00401698) ppm
dia1(k,t,iat1,ispin)=(  2,  2, 10,  1)=(    39.10272418,    39.10272418) ppm
dia1(k,t,iat1,ispin)=(  2,  3, 10,  1)=(    -8.20263686,    -8.20263686) ppm
dia1(k,t,iat1,ispin)=(  3,  1, 10,  1)=(     0.00007826,     0.00007826) ppm
dia1(k,t,iat1,ispin)=(  3,  2, 10,  1)=(    -8.09342095,    -8.09342095) ppm
dia1(k,t,iat1,ispin)=(  3,  3, 10,  1)=(    21.84521465,    21.84521465) ppm
(dia2,par1)(k,t,iat1,spin)=(  1,  1, 10,  1)=(     6.00155863,     6.00155863,     1.23516643,     1.23516643) ppm
(dia2,par1)(k,t,iat1,spin)=(  2,  1, 10,  1)=(     0.00012562,     0.00012562,     0.00012944,     0.00012944) ppm
(dia2,par1)(k,t,iat1,spin)=(  3,  1, 10,  1)=(    -0.00000331,    -0.00000331,    -0.00180102,    -0.00180102) ppm
(dia2,par1)(k,t,iat1,spin)=(  1,  2, 10,  1)=(    -0.00080972,    -0.00080972,     0.00058128,     0.00058128) ppm
(dia2,par1)(k,t,iat1,spin)=(  2,  2, 10,  1)=(     0.04379186,     0.04379186,     0.23841844,     0.23841844) ppm
(dia2,par1)(k,t,iat1,spin)=(  3,  2, 10,  1)=(     2.66453635,     2.66453635,    -0.07224280,    -0.07224280) ppm
(dia2,par1)(k,t,iat1,spin)=(  1,  3, 10,  1)=(     0.00157052,     0.00157052,    -0.00146595,    -0.00146595) ppm
(dia2,par1)(k,t,iat1,spin)=(  2,  3, 10,  1)=(     3.50294299,     3.50294299,    -0.44621383,    -0.44621383) ppm
(dia2,par1)(k,t,iat1,spin)=(  3,  3, 10,  1)=(     5.09685388,     5.09685388,    -3.43661224,    -3.43661224) ppm
 Grid integrated density:      30.000003893169
 Requested integration accuracy:   0.10E-06

 Wrote ZORA NMR data to ./C1C2C1C2_mol_6_conformer_0.zora_nmrcs

(nogshift,skip_gshiftAOev,done_Fji)=( 1,F,T)


         Total DFT energy =     -156.022697191950
      One electron energy =     -437.067835727228
           Coulomb energy =      189.278212976628
    Exchange-Corr. energy =      -23.962456416384
 Nuclear repulsion energy =      115.629885230844

             COSMO energy =        0.099496744191

       Scaling correction =        0.035135844668

 Numeric. integr. density =       30.000001527235

     Total iterative time =     48.2s


                                   COSMO solvation results
                                   -----------------------

                 gas phase energy =      -156.020167246766
                 sol phase energy =      -156.022697191950
 (electrostatic) solvation energy =         0.002529945184 (    1.59 kcal/mol)

 center of mass
 --------------
 x =   0.00000000 y =   0.00000000 z =   0.16244148

 moments of inertia (a.u.)
 ------------------
         195.730497803050           0.000000000000           0.000000000000
           0.000000000000         105.241327503827          -0.000000000000
           0.000000000000          -0.000000000000         218.541868694220

            Scalar ZORA NMR Shielding
            -------------------------


          -----------------------------------------
          Chemical Shielding Tensors (GIAO, in ppm)
          -----------------------------------------


 Read ZORA NMR data from ./C1C2C1C2_mol_6_conformer_0.zora_nmrcs

    0 giaofock schwarz done =      98.41%
    0 giaofock schwarz done =      97.69%
                                NWChem CPHF Module
                                ------------------



 solvent parameters
 solvname_short: cdcl3   
 solvname_long:  unknown                            
 dielec:       78.4000
 dielecinf:     1.7769

          ---------------
          -cosmo- solvent
          ---------------
 Cosmo: York-Karplus, doi: 10.1021/jp992097l
 dielectric constant -eps-     =  78.40
 screen = (eps-1)/(eps    )    =   0.98724
 surface charge correction     = lagrangian
 -lineq- algorithm             =   0
 -bem- low  level              =   2
 -bem- from -octahedral-
 gaussian surface charge width =   0.98000
 degree of switching           =   1.00000
 switching function tolerance  =   0.00010
 atomic radii = 
 --------------
    1  6.000  2.000
    2  6.000  2.000
    3  6.000  2.000
    4  6.000  2.000
    5  1.000  1.300
    6  1.000  1.300
    7  1.000  1.300
    8  1.000  1.300
    9  1.000  1.300
   10  1.000  1.300

 solvent accessible surface
 --------------------------

 ---------- ATOMIC COORDINATES (A.U.) ------------ VDWR(ANG.) --
     1    0.00000000    2.16055811   -0.43691512     2.000
     2   -1.42632910    0.00000000    0.76991998     2.000
     3    1.42632910    0.00000000    0.76991998     2.000
     4    0.00000000   -2.16055811   -0.43691512     2.000
     5    0.00000000    2.34258252   -2.48242967     1.300
     6    0.00000000    3.94829148    0.56064663     1.300
     7   -2.74612245    0.00000000    2.31240146     1.300
     8    2.74612245    0.00000000    2.31240146     1.300
     9    0.00000000   -2.34258252   -2.48242967     1.300
    10    0.00000000   -3.94829148    0.56064663     1.300
 number of segments per atom =         32
 number of   points per atom =         32
 atom (   nspa,  nppa )
 ----------------------
    1 (     14,     0 )       0
    2 (     16,     0 )       0
    3 (     16,     0 )       0
    4 (     14,     0 )       0
    5 (     16,     0 )       0
    6 (     16,     0 )       0
    7 (     12,     0 )       0
    8 (     12,     0 )       0
    9 (     16,     0 )       0
   10 (     16,     0 )       0
 number of -cosmo- surface points =      148
 molecular surface =     90.016 angstrom**2
 molecular volume  =     51.554 angstrom**3
 G(cav/disp)       =      1.310 kcal/mol
 ...... end of -cosmo- initialization ......


  scftype          =     RHF 
  nclosed          =       15
  nopen            =        0
  variables        =      825
  # of vectors     =        3
  tolerance        = 0.10D-03
  level shift      = 0.00D+00
  max iterations   =       50
  max subspace     =       30

 SCF residual:    1.4181646898868229E-004


Iterative solution of linear equations
  No. of variables      825
  No. of equations        3
  Maximum subspace       30
        Iterations       50
       Convergence  1.0D-04
        Start time    888.4


   iter   nsub   residual    time
   ----  ------  --------  ---------
     1      3    4.48D-01     890.5
     2      6    7.68D-03     892.8
     3      9    5.03D-04     894.9
     4     12    2.81D-05     897.1

 Wrote CPHF data to ./C1C2C1C2_mol_6_conformer_0.shieldcphf

 Calc. par tensor-> zora
      Atom:    1  H 
        Diamagnetic
     22.9270      0.0022     -0.0023
      0.0022     27.4920     -3.8176
     -0.0023     -3.8176     39.4603

        Paramagnetic
      3.9511     -0.0024      0.0016
     -0.0024      3.1397      0.2867
      0.0016      0.2867     -0.8741

        Total Shielding Tensor
     26.8781     -0.0002     -0.0006
     -0.0002     30.6317     -3.5308
     -0.0006     -3.5308     38.5862

           isotropic =      32.0320
          anisotropy =      11.8430

          Principal Components and Axis System
                 1           2           3
               39.9273     29.2905     26.8781

      1        -0.0000     -0.0002      1.0000
      2        -0.3551      0.9348      0.0002
      3         0.9348      0.3551      0.0001



      Atom:    2  H 
        Diamagnetic
     24.1425      0.0037     -0.0002
      0.0037     39.1557      5.0651
     -0.0002      5.0651     26.9553

        Paramagnetic
      2.4094     -0.0037      0.0001
     -0.0037      1.1918     -2.4638
      0.0001     -2.4638      0.4972

        Total Shielding Tensor
     26.5519      0.0001     -0.0001
      0.0001     40.3474      2.6013
     -0.0001      2.6013     27.4525

           isotropic =      31.4506
          anisotropy =      14.1027

          Principal Components and Axis System
                 1           2           3
               40.8524     26.9475     26.5519

      1         0.0000     -0.0002      1.0000
      2         0.9817     -0.1906     -0.0000
      3         0.1906      0.9817      0.0002



      Atom:    3  H 
        Diamagnetic
     30.8973      0.0015     -8.2029
      0.0015     24.3404     -0.0018
     -8.2029     -0.0018     32.3583

        Paramagnetic
     -0.1271     -0.0004      1.5274
     -0.0004      4.0259      0.0011
      1.5274      0.0011      2.8453

        Total Shielding Tensor
     30.7702      0.0011     -6.6755
      0.0011     28.3663     -0.0007
     -6.6755     -0.0007     35.2036

           isotropic =      31.4467
          anisotropy =      12.8612

          Principal Components and Axis System
                 1           2           3
               40.0208     28.3663     25.9529

      1        -0.5852      0.0001      0.8109
      2        -0.0001      1.0000     -0.0002
      3         0.8109      0.0002      0.5852



      Atom:    4  H 
        Diamagnetic
     30.8758     -0.0018      8.2063
     -0.0018     24.3146     -0.0021
      8.2063     -0.0021     32.3384

        Paramagnetic
     -0.1238      0.0007     -1.5278
      0.0007      4.0426      0.0011
     -1.5278      0.0011      2.8366

        Total Shielding Tensor
     30.7520     -0.0011      6.6785
     -0.0011     28.3572     -0.0011
      6.6785     -0.0011     35.1750

           isotropic =      31.4281
          anisotropy =      12.8558

          Principal Components and Axis System
                 1           2           3
               39.9986     28.3572     25.9284

      1         0.5855     -0.0000      0.8107
      2        -0.0001      1.0000      0.0001
      3         0.8107      0.0002     -0.5855



      Atom:    5  H 
        Diamagnetic
     22.9104     -0.0021     -0.0016
     -0.0021     27.4817      3.8197
     -0.0016      3.8197     39.4449

        Paramagnetic
      3.9516      0.0022      0.0000
      0.0022      3.1412     -0.2881
      0.0000     -0.2881     -0.8756

        Total Shielding Tensor
     26.8620      0.0001     -0.0016
      0.0001     30.6230      3.5316
     -0.0016      3.5316     38.5693

           isotropic =      32.0181
          anisotropy =      11.8408

          Principal Components and Axis System
                 1           2           3
               39.9120     29.2803     26.8620

      1        -0.0001      0.0003      1.0000
      2         0.3554      0.9347     -0.0002
      3         0.9347     -0.3554      0.0002



      Atom:    6  H 
        Diamagnetic
     24.1291     -0.0033      0.0001
     -0.0033     39.1465     -5.0643
      0.0001     -5.0643     26.9421

        Paramagnetic
      2.4044      0.0025     -0.0003
      0.0025      1.1911      2.4646
     -0.0003      2.4646      0.4960

        Total Shielding Tensor
     26.5335     -0.0008     -0.0001
     -0.0008     40.3376     -2.5997
     -0.0001     -2.5997     27.4381

           isotropic =      31.4364
          anisotropy =      14.1081

          Principal Components and Axis System
                 1           2           3
               40.8418     26.9339     26.5335

      1        -0.0000     -0.0007      1.0000
      2         0.9817      0.1904      0.0002
      3        -0.1904      0.9817      0.0007




 Task  times  cpu:       72.6s     wall:       69.5s


                                NWChem Input Module
                                -------------------


 Summary of allocated global arrays
-----------------------------------
  array 0 => double precision sf 1(70,70),  handle: -987 
  array 1 => double precision sf 1(70,70),  handle: -986 
  array 2 => double precision sf 1(70,70),  handle: -985 
  array 3 => double precision sf 1(70,70),  handle: -984 
  array 4 => double precision sf 1(70,70),  handle: -983 
  array 5 => double precision sf 1(70,70),  handle: -982 
  array 6 => double precision sf 1(70,70),  handle: -981 
  array 7 => double precision sf 1(70,70),  handle: -980 
  array 8 => double precision sf 1(70,70),  handle: -979 
  array 9 => double precision sf 1(70,70),  handle: -978 
  array 10 => double precision sf 1(70,70),  handle: -977 
  array 11 => double precision sf 1(70,70),  handle: -976 
  array 12 => double precision sf 1(70,70),  handle: -975 
  array 13 => double precision sf 1(70,70),  handle: -974 
  array 14 => double precision sf 1(70,70),  handle: -973 
  array 15 => double precision sf 1(70,70),  handle: -972 
  array 16 => double precision sf 1(70,70),  handle: -971 
  array 17 => double precision sf 1(70,70),  handle: -970 
  array 18 => double precision sf 1(70,70),  handle: -969 
  array 19 => double precision sf 1(70,70),  handle: -968 
  array 20 => double precision sf 1(70,70),  handle: -967 
  array 21 => double precision sf 1(70,70),  handle: -966 
  array 22 => double precision sf 1(70,70),  handle: -965 
  array 23 => double precision sf 1(70,70),  handle: -964 
  array 24 => double precision sf 1(70,70),  handle: -963 
  array 25 => double precision sf 1(70,70),  handle: -962 
  array 26 => double precision sf 1(70,70),  handle: -961 
  array 27 => double precision sf 1(70,70),  handle: -960 
  array 28 => double precision sf 1(70,70),  handle: -959 
  array 29 => double precision sf 1(70,70),  handle: -958 
  array 30 => double precision sf 1(70,70),  handle: -957 
  array 31 => double precision sf 1(70,70),  handle: -956 
  array 32 => double precision sf 1(70,70),  handle: -955 
  array 33 => double precision sf 1(70,70),  handle: -954 
  array 34 => double precision sf 1(70,70),  handle: -953 
  array 35 => double precision sf 1(70,70),  handle: -952 
  array 36 => double precision sf 1(70,70),  handle: -951 
  array 37 => double precision sf 1(70,70),  handle: -950 
  array 38 => double precision sf 1(70,70),  handle: -949 
  array 39 => double precision sf 1(70,70),  handle: -948 
  array 40 => double precision sf 1(70,70),  handle: -947 
  array 41 => double precision sf 1(70,70),  handle: -946 
  array 42 => double precision sf 1(70,70),  handle: -945 
  array 43 => double precision sf 1(70,70),  handle: -944 
  array 44 => double precision sf 1(70,70),  handle: -943 
  array 45 => double precision sf 1(70,70),  handle: -942 
  array 46 => double precision sf 1(70,70),  handle: -941 
  array 47 => double precision sf 1(70,70),  handle: -940 
  array 48 => double precision sf 1(70,70),  handle: -939 
  array 49 => double precision sf 1(70,70),  handle: -938 
  array 50 => double precision sf 1(70,70),  handle: -937 



                         GA Statistics for process    0
                         ------------------------------

       create   destroy   get      put      acc     scatter   gather  read&inc
calls: 9188     8822     2.25e+05 5.41e+04 7.08e+04   60        0     6538     
number of processes/call 0.00e+00 0.00e+00 0.00e+00 0.00e+00 0.00e+00
bytes total:             3.53e+08 5.51e+07 2.82e+08 3.36e+02 0.00e+00 5.23e+04
bytes remote:            3.15e+08 4.52e+07 2.61e+08 -1.68e+02 0.00e+00 0.00e+00
Max memory consumed for GA by this process: 580576 bytes

MA_summarize_allocated_blocks: starting scan ...
MA_summarize_allocated_blocks: scan completed: 0 heap blocks, 0 stack blocks
MA usage statistics:

	allocation statistics:
					      heap	     stack
					      ----	     -----
	current number of blocks	         0	         0
	maximum number of blocks	        66	        59
	current total bytes		         0	         0
	maximum total bytes		   2004872	  27319128
	maximum total K-bytes		      2005	     27320
	maximum total M-bytes		         3	        28


                                     CITATION
                                     --------
                Please cite the following reference when publishing
                           results obtained with NWChem:

          E. Apr, E. J. Bylaska, W. A. de Jong, N. Govind, K. Kowalski,
       T. P. Straatsma, M. Valiev, H. J. J. van Dam, Y. Alexeev, J. Anchell,
       V. Anisimov, F. W. Aquino, R. Atta-Fynn, J. Autschbach, N. P. Bauman,
     J. C. Becca, D. E. Bernholdt, K. Bhaskaran-Nair, S. Bogatko, P. Borowski,
        J. Boschen, J. Brabec, A. Bruner, E. Caut, Y. Chen, G. N. Chuev,
      C. J. Cramer, J. Daily, M. J. O. Deegan, T. H. Dunning Jr., M. Dupuis,
   K. G. Dyall, G. I. Fann, S. A. Fischer, A. Fonari, H. Frchtl, L. Gagliardi,
      J. Garza, N. Gawande, S. Ghosh, K. Glaesemann, A. W. Gtz, J. Hammond,
       V. Helms, E. D. Hermes, K. Hirao, S. Hirata, M. Jacquelin, L. Jensen,
   B. G. Johnson, H. Jnsson, R. A. Kendall, M. Klemm, R. Kobayashi, V. Konkov,
      S. Krishnamoorthy, M. Krishnan, Z. Lin, R. D. Lins, R. J. Littlefield,
      A. J. Logsdail, K. Lopata, W. Ma, A. V. Marenich, J. Martin del Campo,
   D. Mejia-Rodriguez, J. E. Moore, J. M. Mullin, T. Nakajima, D. R. Nascimento,
    J. A. Nichols, P. J. Nichols, J. Nieplocha, A. Otero-de-la-Roza, B. Palmer,
    A. Panyala, T. Pirojsirikul, B. Peng, R. Peverati, J. Pittner, L. Pollack,
   R. M. Richard, P. Sadayappan, G. C. Schatz, W. A. Shelton, D. W. Silverstein,
   D. M. A. Smith, T. A. Soares, D. Song, M. Swart, H. L. Taylor, G. S. Thomas,
            V. Tipparaju, D. G. Truhlar, K. Tsemekhman, T. Van Voorhis,
     . Vzquez-Mayagoitia, P. Verma, O. Villa, A. Vishnu, K. D. Vogiatzis,
        D. Wang, J. H. Weare, M. J. Williamson, T. L. Windus, K. Woliski,
        A. T. Wong, Q. Wu, C. Yang, Q. Yu, M. Zacharias, Z. Zhang, Y. Zhao,
                                and R. J. Harrison
                        "NWChem: Past, present, and future
                         J. Chem. Phys. 152, 184102 (2020)
                               doi:10.1063/5.0004997

                                      AUTHORS
                                      -------
     E. Apra, E. J. Bylaska, N. Govind, K. Kowalski, M. Valiev, W. A. de Jong,
      T. P. Straatsma, H. J. J. van Dam, D. Wang, T. L. Windus, N. P. Bauman,
       A. Panyala, J. Hammond, J. Autschbach, K. Bhaskaran-Nair, J. Brabec,
    K. Lopata, S. A. Fischer, S. Krishnamoorthy, M. Jacquelin, W. Ma, M. Klemm,
       O. Villa, Y. Chen, V. Anisimov, F. Aquino, S. Hirata, M. T. Hackler,
           Eric Hermes, L. Jensen, J. E. Moore, J. C. Becca, V. Konjkov,
            D. Mejia-Rodriguez, T. Risthaus, M. Malagoli, A. Marenich,
   A. Otero-de-la-Roza, J. Mullin, P. Nichols, R. Peverati, J. Pittner, Y. Zhao,
        P.-D. Fan, A. Fonari, M. J. Williamson, R. J. Harrison, J. R. Rehr,
      M. Dupuis, D. Silverstein, D. M. A. Smith, J. Nieplocha, V. Tipparaju,
      M. Krishnan, B. E. Van Kuiken, A. Vazquez-Mayagoitia, M. Swart, Q. Wu,
   T. Van Voorhis, A. A. Auer, M. Nooijen, L. D. Crosby, E. Brown, G. Cisneros,
     G. I. Fann, H. Fruchtl, J. Garza, K. Hirao, R. A. Kendall, J. A. Nichols,
       K. Tsemekhman, K. Wolinski, J. Anchell, D. E. Bernholdt, P. Borowski,
       T. Clark, D. Clerc, H. Dachsel, M. J. O. Deegan, K. Dyall, D. Elwood,
      E. Glendening, M. Gutowski, A. C. Hess, J. Jaffe, B. G. Johnson, J. Ju,
        R. Kobayashi, R. Kutteh, Z. Lin, R. Littlefield, X. Long, B. Meng,
      T. Nakajima, S. Niu, L. Pollack, M. Rosing, K. Glaesemann, G. Sandrone,
      M. Stave, H. Taylor, G. Thomas, J. H. van Lenthe, A. T. Wong, Z. Zhang.

 Total times  cpu:      900.9s     wall:      897.4s
