 argument  1 = ClC(Cl)Cl_mol_0_conformer_0.nw



============================== echo of input deck ==============================
start

title "Molecule conformer 0"

memory total 4000 mb

echo
geometry units angstroms
   Cl    -0.6421     1.5606    -0.4156
   C     -0.0009    -0.0041     0.1337
   Cl    -1.0143    -1.3174    -0.5062
   Cl     1.6654    -0.2011    -0.4544
   H     -0.0081    -0.0380     1.2425
end


basis spherical
* library 6-311G
end

driver
  maxiter 500
  xyz final
end

relativistic
  zora on
  zora:cutoff_NMR 1d-8
  zora:cutoff 1d-30
end

dft
  direct
  grid fine
  xc B3LYP
  mult 1
  maxiter 1500
  noprint "final vectors analysis" multipole
end

task dft optimize

task dft freq

property
  shielding 1 5
end

cosmo
   solvent cdcl3
end

task dft property
================================================================================


                                         
                                         


             Northwest Computational Chemistry Package (NWChem) 7.0.2
             --------------------------------------------------------


                    Environmental Molecular Sciences Laboratory
                       Pacific Northwest National Laboratory
                                Richland, WA 99352

                              Copyright (c) 1994-2020
                       Pacific Northwest National Laboratory
                            Battelle Memorial Institute

             NWChem is an open-source computational chemistry package
                        distributed under the terms of the
                      Educational Community License (ECL) 2.0
             A copy of the license is included with this distribution
                              in the LICENSE.TXT file

                                  ACKNOWLEDGMENT
                                  --------------

            This software and its documentation were developed at the
            EMSL at Pacific Northwest National Laboratory, a multiprogram
            national laboratory, operated for the U.S. Department of Energy
            by Battelle under Contract Number DE-AC05-76RL01830. Support
            for this work was provided by the Department of Energy Office
            of Biological and Environmental Research, Office of Basic
            Energy Sciences, and the Office of Advanced Scientific Computing.


           Job information
           ---------------

    hostname        = ponder
    program         = nwchem
    date            = Mon Aug  5 12:59:32 2024

    compiled        = Sat_Apr_09_17:12:10_2022
    source          = /build/nwchem-f1f4gx/nwchem-7.0.2/build-openmpi
    nwchem branch   = 7.0.2
    nwchem revision = N/A
    ga revision     = 5.8.1
    use scalapack   = T
    input           = ClC(Cl)Cl_mol_0_conformer_0.nw
    prefix          = ClC(Cl)Cl_mol_0_conformer_0.
    data base       = ./ClC(Cl)Cl_mol_0_conformer_0.db
    status          = startup
    nproc           =       40
    time left       =     -1s



           Memory information
           ------------------

    heap     =  131071996 doubles =   1000.0 Mbytes
    stack    =  131072001 doubles =   1000.0 Mbytes
    global   =  262144000 doubles =   2000.0 Mbytes (distinct from heap & stack)
    total    =  524287997 doubles =   4000.0 Mbytes
    verify   = yes
    hardfail = no 


           Directory information
           ---------------------

  0 permanent = .
  0 scratch   = .




                                NWChem Input Module
                                -------------------


                               Molecule conformer 0
                               --------------------

 Scaling coordinates for geometry "geometry" by  1.889725989
 (inverse scale =  0.529177249)

 C3  symmetry detected

          ------
          auto-z
          ------
  Looking for out-of-plane bends
  no constraints, skipping    0.0000000000000000     
  no constraints, skipping    0.0000000000000000     


                             Geometry "geometry" -> ""
                             -------------------------

 Output coordinates in angstroms (scale by  1.889725989 to convert to a.u.)

  No.       Tag          Charge          X              Y              Z
 ---- ---------------- ---------- -------------- -------------- --------------
    1 Cl                  17.0000     0.42598012     1.62123901    -0.09066219
    2 C                    6.0000     0.00000000     0.00000000     0.50206143
    3 Cl                  17.0000    -1.61702422    -0.44170990    -0.09066219
    4 Cl                  17.0000     1.19104411    -1.17952911    -0.09066219
    5 H                    1.0000     0.00000000     0.00000000     1.61140289

      Atomic Mass 
      ----------- 

      Cl                34.968850
      C                 12.000000
      H                  1.007825


 Effective nuclear repulsion energy (a.u.)     263.2553229584

            Nuclear Dipole moment (a.u.) 
            ----------------------------
        X                 Y               Z
 ---------------- ---------------- ----------------
     0.0000000000     0.0000000000     0.0000000000

      Symmetry information
      --------------------

 Group name             C3        
 Group number              5
 Group order               3
 No. of unique centers     3

      Symmetry unique atoms

     1    2    5



                                Z-matrix (autoz)
                                -------- 

 Units are Angstrom for bonds and degrees for angles

      Type          Name      I     J     K     L     M      Value
      ----------- --------  ----- ----- ----- ----- ----- ----------
    1 Stretch                  1     2                       1.77798
    2 Stretch                  2     3                       1.77798
    3 Stretch                  2     4                       1.77798
    4 Stretch                  2     5                       1.10934
    5 Bend                     1     2     3               109.46899
    6 Bend                     1     2     4               109.46899
    7 Bend                     1     2     5               109.47345
    8 Bend                     3     2     4               109.46899
    9 Bend                     3     2     5               109.47345
   10 Bend                     4     2     5               109.47345


            XYZ format geometry
            -------------------
     5
 geometry
 Cl                    0.42598012     1.62123901    -0.09066219
 C                     0.00000000     0.00000000     0.50206143
 Cl                   -1.61702422    -0.44170990    -0.09066219
 Cl                    1.19104411    -1.17952911    -0.09066219
 H                     0.00000000     0.00000000     1.61140289

 ==============================================================================
                                internuclear distances
 ------------------------------------------------------------------------------
       center one      |      center two      | atomic units |  angstroms
 ------------------------------------------------------------------------------
    2 C                |   1 Cl               |     3.35989  |     1.77798
    3 Cl               |   2 C                |     3.35989  |     1.77798
    4 Cl               |   2 C                |     3.35989  |     1.77798
    5 H                |   2 C                |     2.09635  |     1.10934
 ------------------------------------------------------------------------------
                         number of included internuclear distances:          4
 ==============================================================================



 ==============================================================================
                                 internuclear angles
 ------------------------------------------------------------------------------
        center 1       |       center 2       |       center 3       |  degrees
 ------------------------------------------------------------------------------
    1 Cl               |   2 C                |   3 Cl               |   109.47
    1 Cl               |   2 C                |   4 Cl               |   109.47
    1 Cl               |   2 C                |   5 H                |   109.47
    3 Cl               |   2 C                |   4 Cl               |   109.47
    3 Cl               |   2 C                |   5 H                |   109.47
    4 Cl               |   2 C                |   5 H                |   109.47
 ------------------------------------------------------------------------------
                            number of included internuclear angles:          6
 ==============================================================================





 Summary of "ao basis" -> "" (spherical)
 ------------------------------------------------------------------------------
       Tag                 Description            Shells   Functions and Types
 ---------------- ------------------------------  ------  ---------------------
 *                           6-311G                   on all atoms 




                           NWChem Geometry Optimization
                           ----------------------------




                               Molecule conformer 0


  no constraints, skipping    0.0000000000000000     
 maximum gradient threshold         (gmax) =   0.000450
 rms gradient threshold             (grms) =   0.000300
 maximum cartesian step threshold   (xmax) =   0.001800
 rms cartesian step threshold       (xrms) =   0.001200
 fixed trust radius                (trust) =   0.300000
 maximum step size to saddle      (sadstp) =   0.100000
 energy precision                  (eprec) =   5.0D-06
 maximum number of steps          (nptopt) =  500
 initial hessian option           (inhess) =    0
 line search option               (linopt) =    1
 hessian update option            (modupd) =    1
 saddle point option              (modsad) =    0
 initial eigen-mode to follow     (moddir) =    0
 initial variable to follow       (vardir) =    0
 follow first negative mode     (firstneg) =    T
 apply conjugacy                    (opcg) =    F
 source of zmatrix                         =   autoz   


          -------------------
          Energy Minimization
          -------------------


 Names of Z-matrix variables 
    1              2              3              4              5         
    6              7              8              9             10         

 Variables with the same non-blank name are constrained to be equal


 Using diagonal initial Hessian 
 Scaling for Hessian diagonals: bonds = 1.00  angles = 0.25  torsions = 0.10

          --------
          Step   0
          --------


                         Geometry "geometry" -> "geometry"
                         ---------------------------------

 Output coordinates in angstroms (scale by  1.889725989 to convert to a.u.)

  No.       Tag          Charge          X              Y              Z
 ---- ---------------- ---------- -------------- -------------- --------------
    1 Cl                  17.0000     0.42598012     1.62123901    -0.09066219
    2 C                    6.0000     0.00000000     0.00000000     0.50206143
    3 Cl                  17.0000    -1.61702422    -0.44170990    -0.09066219
    4 Cl                  17.0000     1.19104411    -1.17952911    -0.09066219
    5 H                    1.0000     0.00000000     0.00000000     1.61140289

      Atomic Mass 
      ----------- 

      Cl                34.968850
      C                 12.000000
      H                  1.007825


 Effective nuclear repulsion energy (a.u.)     263.2553229584

            Nuclear Dipole moment (a.u.) 
            ----------------------------
        X                 Y               Z
 ---------------- ---------------- ----------------
     0.0000000000     0.0000000000     0.0000000000

      Symmetry information
      --------------------

 Group name             C3        
 Group number              5
 Group order               3
 No. of unique centers     3

      Symmetry unique atoms

     1    2    5


                                 NWChem DFT Module
                                 -----------------


                               Molecule conformer 0


                      Basis "ao basis" -> "ao basis" (spherical)
                      -----
  Cl (Chlorine)
  -------------
            Exponent  Coefficients 
       -------------- ---------------------------------------------------------
  1 S  1.05819000E+05  0.000738
  1 S  1.58720000E+04  0.005718
  1 S  3.61965000E+03  0.029495
  1 S  1.03080000E+03  0.117286
  1 S  3.39908000E+02  0.362949
  1 S  1.24538000E+02  0.584149

  2 S  1.24538000E+02  0.134177
  2 S  4.95135000E+01  0.624250
  2 S  2.08056000E+01  0.291756

  3 S  6.58346000E+00  1.000000

  4 S  2.56468000E+00  1.000000

  5 S  5.59763000E-01  1.000000

  6 S  1.83273000E-01  1.000000

  7 P  5.89776000E+02  0.002391
  7 P  1.39849000E+02  0.018504
  7 P  4.51413000E+01  0.081377
  7 P  1.68733000E+01  0.221552
  7 P  6.74110000E+00  0.772569

  8 P  6.74110000E+00 -1.572244
  8 P  2.77152000E+00  0.992389

  9 P  1.02387000E+00  1.000000

 10 P  3.81368000E-01  1.000000

 11 P  1.09437000E-01  1.000000

  C (Carbon)
  ----------
            Exponent  Coefficients 
       -------------- ---------------------------------------------------------
  1 S  4.56324000E+03  0.001967
  1 S  6.82024000E+02  0.015231
  1 S  1.54973000E+02  0.076127
  1 S  4.44553000E+01  0.260801
  1 S  1.30290000E+01  0.616462
  1 S  1.82773000E+00  0.221006

  2 S  2.09642000E+01  0.114660
  2 S  4.80331000E+00  0.919999
  2 S  1.45933000E+00 -0.003031

  3 P  2.09642000E+01  0.040249
  3 P  4.80331000E+00  0.237594
  3 P  1.45933000E+00  0.815854

  4 S  4.83456000E-01  1.000000

  5 P  4.83456000E-01  1.000000

  6 S  1.45585000E-01  1.000000

  7 P  1.45585000E-01  1.000000

  H (Hydrogen)
  ------------
            Exponent  Coefficients 
       -------------- ---------------------------------------------------------
  1 S  3.38650000E+01  0.025494
  1 S  5.09479000E+00  0.190373
  1 S  1.15879000E+00  0.852161

  2 S  3.25840000E-01  1.000000

  3 S  1.02741000E-01  1.000000



 Summary of "ao basis" -> "ao basis" (spherical)
 ------------------------------------------------------------------------------
       Tag                 Description            Shells   Functions and Types
 ---------------- ------------------------------  ------  ---------------------
 Cl                          6-311G                 11       21   6s5p
 C                           6-311G                  7       13   4s3p
 H                           6-311G                  3        3   3s




 Summary of "ao basis" -> "ao basis" (spherical)
 ------------------------------------------------------------------------------
       Tag                 Description            Shells   Functions and Types
 ---------------- ------------------------------  ------  ---------------------
 Cl                          6-311G                 11       21   6s5p
 C                           6-311G                  7       13   4s3p
 H                           6-311G                  3        3   3s


      Symmetry analysis of basis
      --------------------------

        a          31
        e+         24
        e-         24

  Caching 1-el integrals 
  Rotation of axis 

            General Information
            -------------------
          SCF calculation type: DFT
          Wavefunction type:  closed shell.
          No. of atoms     :     5
          No. of electrons :    58
           Alpha electrons :    29
            Beta electrons :    29
          Charge           :     0
          Spin multiplicity:     1
          Use of symmetry is: on ; symmetry adaption is: on 
          Maximum number of iterations: ***
          This is a Direct SCF calculation.
          AO basis - number of functions:    79
                     number of shells:    43
          Convergence on energy requested:  1.00D-06
          Convergence on density requested:  1.00D-05
          Convergence on gradient requested:  5.00D-04

              XC Information
              --------------
                         B3LYP Method XC Potential
                     Hartree-Fock (Exact) Exchange  0.200          
                        Slater Exchange Functional  0.800 local    
                    Becke 1988 Exchange Functional  0.720 non-local
              Lee-Yang-Parr Correlation Functional  0.810          
                  VWN I RPA Correlation Functional  0.190 local    

             Grid Information
             ----------------
          Grid used for XC integration:  fine      
          Radial quadrature: Mura-Knowles        
          Angular quadrature: Lebedev. 
          Tag              B.-S. Rad. Rad. Pts. Rad. Cut. Ang. Pts.
          ---              ---------- --------- --------- ---------
          Cl                  1.00      123          10.0       770
          C                   0.70       70           8.0       590
          H                   0.35       60           9.0       590
          Grid pruning is: on 
          Number of quadrature shells:   253
          Spatial weights used:  Erf1

          Convergence Information
          -----------------------
          Convergence aids based upon iterative change in 
          total energy or number of iterations. 
          Levelshifting, if invoked, occurs when the 
          HOMO/LUMO gap drops below (HL_TOL):  1.00D-02
          DIIS, if invoked, will attempt to extrapolate 
          using up to (NFOCK): 10 stored Fock matrices.

                    Damping( 0%)  Levelshifting(0.5)       DIIS
                  --------------- ------------------- ---------------
          dE  on:    start            ASAP                start   
          dE off:    2 iters        *** iters           *** iters 


      Screening Tolerance Information
      -------------------------------
          Density screening/tol_rho:  1.00D-10
          AO Gaussian exp screening on grid/accAOfunc:  14
          CD Gaussian exp screening on grid/accCDfunc:  20
          XC Gaussian exp screening on grid/accXCfunc:  20
          Schwarz screening/accCoul:  1.00D-08

          Performing ZORA calculations
          ----------------------------


      Superposition of Atomic Density Guess
      -------------------------------------

 Sum of atomic energies:       -1416.59893258

 Read atomic ZORA corrections from ./ClC(Cl)Cl_mol_0_conformer_0.zora_sf

 dft_zora_read: failed to open./ClC(Cl)Cl_mol_0_conformer_0.zora_sf
 Forcing recalculation of ZORA corrections
       Generating atomic ZORA corrections
       ----------------------------------

 In dft_scf:: zora:Knucl= F

 Grid_pts file          = ./ClC(Cl)Cl_mol_0_conformer_0.gridpts.00
 Record size in doubles =  12289        No. of grid_pts per rec  =   3070
 Max. records in memory =      3        Max. recs in file   =     13537


 Wrote atomic ZORA corrections to ./ClC(Cl)Cl_mol_0_conformer_0.zora_sf


      Superposition of Atomic Density Guess
      -------------------------------------

 Sum of atomic energies:       -1416.59893258

      Non-variational initial energy
      ------------------------------

 Total energy =   -1417.653353
 1-e energy   =   -2481.044156
 2-e energy   =     800.135480
 HOMO         =      -0.374188
 LUMO         =       0.026475


      Symmetry analysis of molecular orbitals - initial
      -------------------------------------------------

  Numbering of irreducible representations: 

     1 a           2 e+          3 e-      

  Orbital symmetries:

     1 a           2 e+          3 e+          4 a           5 a       
     6 e+          7 e+          8 a           9 e+         10 e+      
    11 e+         12 e+         13 a          14 e+         15 e+      
    16 a          17 a          18 e+         19 e+         20 a       
    21 a          22 e+         23 e+         24 e+         25 e+      
    26 e+         27 e+         28 a          29 a          30 a       
    31 e+         32 e+         33 a          34 e+         35 e+      
    36 a          37 e+         38 e+         39 a       

   Time after variat. SCF:      6.9
   Time prior to 1st pass:      6.9

           Memory utilization after 1st SCF pass: 
           Heap Space remaining (MW):      131.03           131031452
          Stack Space remaining (MW):      131.06           131058884

   convergence    iter        energy       DeltaE   RMS-Dens  Diis-err    time
 ---------------- ----- ----------------- --------- --------- ---------  ------
 d= 0,ls=0.0,diis     1  -1425.5097104180 -1.69D+03  2.51D-02  1.12D+02     8.8
 d= 0,ls=0.0,diis     2  -1425.2248580853  2.85D-01  3.55D-02  4.87D+00    11.1
 d= 0,ls=0.0,diis     3  -1424.8995011819  3.25D-01  2.43D-02  5.04D+00    13.8
 d= 0,ls=0.0,diis     4  -1425.7846905260 -8.85D-01  2.21D-03  8.49D-02    16.3
 d= 0,ls=0.0,diis     5  -1425.7939592826 -9.27D-03  6.85D-04  5.59D-03    18.9
  Resetting Diis
 d= 0,ls=0.0,diis     6  -1425.7946148201 -6.56D-04  9.43D-05  1.46D-04    21.6
 d= 0,ls=0.0,diis     7  -1425.7946325178 -1.77D-05  2.97D-05  1.84D-06    24.3
 d= 0,ls=0.0,diis     8  -1425.7946321614  3.56D-07  1.74D-05  4.66D-06    27.2
 d= 0,ls=0.0,diis     9  -1425.7946327769 -6.15D-07  2.37D-06  5.88D-08    29.4
(nogshift,skip_gshiftAOev,done_Fji)=( 1,F,F)


         Total DFT energy =    -1425.794632776858
      One electron energy =    -2488.900150513728
           Coulomb energy =      890.738479935759
    Exchange-Corr. energy =      -90.888285157314
 Nuclear repulsion energy =      263.255322958425

       Scaling correction =        2.356822323642

 Numeric. integr. density =       58.000001008052

     Total iterative time =     22.5s



                  Occupations of the irreducible representations
                  ----------------------------------------------

                     irrep           alpha         beta
                     --------     --------     --------
                     a                11.0         11.0
                     e+               18.0         18.0
                     e-                0.0          0.0


 center of mass
 --------------
 x =   0.00000000 y =   0.00000000 z =  -0.02984582

 moments of inertia (a.u.)
 ------------------
         549.450209061761           0.000000000000           0.000000000000
           0.000000000000         549.450209061761           0.000000000000
           0.000000000000           0.000000000000        1052.657946549195

            General Information
            -------------------
          SCF calculation type: DFT
          Wavefunction type:  closed shell.
          No. of atoms     :     5
          No. of electrons :    58
           Alpha electrons :    29
            Beta electrons :    29
          Charge           :     0
          Spin multiplicity:     1
          Use of symmetry is: on ; symmetry adaption is: on 
          Maximum number of iterations: ***
          This is a Direct SCF calculation.
          AO basis - number of functions:    79
                     number of shells:    43
          Convergence on energy requested:  1.00D-06
          Convergence on density requested:  1.00D-05
          Convergence on gradient requested:  5.00D-04

              XC Information
              --------------
                         B3LYP Method XC Potential
                     Hartree-Fock (Exact) Exchange  0.200          
                        Slater Exchange Functional  0.800 local    
                    Becke 1988 Exchange Functional  0.720 non-local
              Lee-Yang-Parr Correlation Functional  0.810          
                  VWN I RPA Correlation Functional  0.190 local    

             Grid Information
             ----------------
          Grid used for XC integration:  fine      
          Radial quadrature: Mura-Knowles        
          Angular quadrature: Lebedev. 
          Tag              B.-S. Rad. Rad. Pts. Rad. Cut. Ang. Pts.
          ---              ---------- --------- --------- ---------
          Cl                  1.00      123          10.0       770
          C                   0.70       70           8.0       590
          H                   0.35       60           9.0       590
          Grid pruning is: on 
          Number of quadrature shells:   253
          Spatial weights used:  Erf1

          Convergence Information
          -----------------------
          Convergence aids based upon iterative change in 
          total energy or number of iterations. 
          Levelshifting, if invoked, occurs when the 
          HOMO/LUMO gap drops below (HL_TOL):  1.00D-02
          DIIS, if invoked, will attempt to extrapolate 
          using up to (NFOCK): 10 stored Fock matrices.

                    Damping( 0%)  Levelshifting(0.5)       DIIS
                  --------------- ------------------- ---------------
          dE  on:    start            ASAP                start   
          dE off:    2 iters        *** iters           *** iters 


      Screening Tolerance Information
      -------------------------------
          Density screening/tol_rho:  1.00D-10
          AO Gaussian exp screening on grid/accAOfunc:  14
          CD Gaussian exp screening on grid/accCDfunc:  20
          XC Gaussian exp screening on grid/accXCfunc:  20
          Schwarz screening/accCoul:  1.00D-08



                            NWChem DFT Gradient Module
                            --------------------------


                               Molecule conformer 0



  charge          =   0.00
  wavefunction    = closed shell

  Rotation of axis 
  Using symmetry


                         DFT ENERGY GRADIENTS

    atom               coordinates                        gradient
                 x          y          z           x          y          z
   1 Cl      0.804986   3.063697  -0.171327   -0.008938  -0.033984   0.004472
   2 C       0.000000   0.000000   0.948759   -0.000000   0.000000  -0.033732
   3 Cl     -3.055733  -0.834711  -0.171327    0.033900   0.009252   0.004472
   4 Cl      2.250747  -2.228987  -0.171327   -0.024962   0.024733   0.004472
   5 H       0.000000   0.000000   3.045110    0.000000   0.000000   0.020314

                 ----------------------------------------
                 |  Time  |  1-e(secs)   |  2-e(secs)   |
                 ----------------------------------------
                 |  CPU   |       0.00   |       0.11   |
                 ----------------------------------------
                 |  WALL  |       0.00   |       0.11   |
                 ----------------------------------------
  no constraints, skipping    0.0000000000000000     

@ Step       Energy      Delta E   Gmax     Grms     Xrms     Xmax   Walltime
@ ---- ---------------- -------- -------- -------- -------- -------- --------
@    0   -1425.79463278  0.0D+00  0.03462  0.02068  0.00000  0.00000     31.2
                                                                    



                                Z-matrix (autoz)
                                -------- 

 Units are Angstrom for bonds and degrees for angles

      Type          Name      I     J     K     L     M      Value     Gradient
      ----------- --------  ----- ----- ----- ----- ----- ---------- ----------
    1 Stretch                  1     2                       1.77798   -0.03462
    2 Stretch                  2     3                       1.77798   -0.03462
    3 Stretch                  2     4                       1.77798   -0.03462
    4 Stretch                  2     5                       1.10934    0.02031
    5 Bend                     1     2     3               109.46899   -0.00667
    6 Bend                     1     2     4               109.46899   -0.00667
    7 Bend                     1     2     5               109.47345    0.00667
    8 Bend                     3     2     4               109.46899   -0.00667
    9 Bend                     3     2     5               109.47345    0.00667
   10 Bend                     4     2     5               109.47345    0.00667

  no constraints, skipping    0.0000000000000000     
  no constraints, skipping    0.0000000000000000     
  no constraints, skipping    0.0000000000000000     
  no constraints, skipping    0.0000000000000000     
  no constraints, skipping    0.0000000000000000     
  no constraints, skipping    0.0000000000000000     
  no constraints, skipping    0.0000000000000000     
  no constraints, skipping    0.0000000000000000     

                                 NWChem DFT Module
                                 -----------------


                               Molecule conformer 0




 Summary of "ao basis" -> "ao basis" (spherical)
 ------------------------------------------------------------------------------
       Tag                 Description            Shells   Functions and Types
 ---------------- ------------------------------  ------  ---------------------
 Cl                          6-311G                 11       21   6s5p
 C                           6-311G                  7       13   4s3p
 H                           6-311G                  3        3   3s


      Symmetry analysis of basis
      --------------------------

        a          31
        e+         24
        e-         24

  Caching 1-el integrals 
  Rotation of axis 

            General Information
            -------------------
          SCF calculation type: DFT
          Wavefunction type:  closed shell.
          No. of atoms     :     5
          No. of electrons :    58
           Alpha electrons :    29
            Beta electrons :    29
          Charge           :     0
          Spin multiplicity:     1
          Use of symmetry is: on ; symmetry adaption is: on 
          Maximum number of iterations: ***
          This is a Direct SCF calculation.
          AO basis - number of functions:    79
                     number of shells:    43
          Convergence on energy requested:  1.00D-06
          Convergence on density requested:  1.00D-05
          Convergence on gradient requested:  5.00D-04

              XC Information
              --------------
                         B3LYP Method XC Potential
                     Hartree-Fock (Exact) Exchange  0.200          
                        Slater Exchange Functional  0.800 local    
                    Becke 1988 Exchange Functional  0.720 non-local
              Lee-Yang-Parr Correlation Functional  0.810          
                  VWN I RPA Correlation Functional  0.190 local    

             Grid Information
             ----------------
          Grid used for XC integration:  fine      
          Radial quadrature: Mura-Knowles        
          Angular quadrature: Lebedev. 
          Tag              B.-S. Rad. Rad. Pts. Rad. Cut. Ang. Pts.
          ---              ---------- --------- --------- ---------
          Cl                  1.00      123          10.0       770
          C                   0.70       70           8.0       590
          H                   0.35       60           9.0       590
          Grid pruning is: on 
          Number of quadrature shells:   253
          Spatial weights used:  Erf1

          Convergence Information
          -----------------------
          Convergence aids based upon iterative change in 
          total energy or number of iterations. 
          Levelshifting, if invoked, occurs when the 
          HOMO/LUMO gap drops below (HL_TOL):  1.00D-02
          DIIS, if invoked, will attempt to extrapolate 
          using up to (NFOCK): 10 stored Fock matrices.

                    Damping( 0%)  Levelshifting(0.5)       DIIS
                  --------------- ------------------- ---------------
          dE  on:    start            ASAP                start   
          dE off:    2 iters        *** iters           *** iters 


      Screening Tolerance Information
      -------------------------------
          Density screening/tol_rho:  1.00D-10
          AO Gaussian exp screening on grid/accAOfunc:  14
          CD Gaussian exp screening on grid/accCDfunc:  20
          XC Gaussian exp screening on grid/accXCfunc:  20
          Schwarz screening/accCoul:  1.00D-08

          Performing ZORA calculations
          ----------------------------


      Superposition of Atomic Density Guess
      -------------------------------------

 Sum of atomic energies:       -1416.59893258

 Read atomic ZORA corrections from ./ClC(Cl)Cl_mol_0_conformer_0.zora_sf

 Forcing recalculation of ZORA corrections
       Generating atomic ZORA corrections
       ----------------------------------

 In dft_scf:: zora:Knucl= F

 Grid_pts file          = ./ClC(Cl)Cl_mol_0_conformer_0.gridpts.00
 Record size in doubles =  12289        No. of grid_pts per rec  =   3070
 Max. records in memory =      3        Max. recs in file   =     13537


 Wrote atomic ZORA corrections to ./ClC(Cl)Cl_mol_0_conformer_0.zora_sf


 Loading old vectors from job with title :

Molecule conformer 0


      Symmetry analysis of molecular orbitals - initial
      -------------------------------------------------

  Numbering of irreducible representations: 

     1 a           2 e+          3 e-      

  Orbital symmetries:

     1 e+          2 e+          3 a           4 a           5 e+      
     6 e+          7 a           8 a           9 e+         10 e+      
    11 a          12 e+         13 e+         14 e+         15 e+      
    16 a          17 a          18 e+         19 e+         20 a       
    21 a          22 e+         23 e+         24 e+         25 e+      
    26 a          27 e+         28 e+         29 a          30 a       
    31 e+         32 e+         33 a          34 e+         35 e+      
    36 a          37 e+         38 e+         39 a       

   Time after variat. SCF:     37.1
   Time prior to 1st pass:     37.1

           Memory utilization after 1st SCF pass: 
           Heap Space remaining (MW):      131.03           131031452
          Stack Space remaining (MW):      131.06           131058884

   convergence    iter        energy       DeltaE   RMS-Dens  Diis-err    time
 ---------------- ----- ----------------- --------- --------- ---------  ------
 d= 0,ls=0.0,diis     1  -1425.7961533530 -1.68D+03  3.77D-03  2.31D-02    39.7
 d= 0,ls=0.0,diis     2  -1425.8005177941 -4.36D-03  1.34D-03  1.02D-02    41.8
 d= 0,ls=0.0,diis     3  -1425.8009011013 -3.83D-04  7.01D-04  7.63D-03    44.4
 d= 0,ls=0.0,diis     4  -1425.8018970970 -9.96D-04  6.79D-05  1.25D-05    46.9
 d= 0,ls=0.0,diis     5  -1425.8018992434 -2.15D-06  1.59D-05  1.73D-06    49.7
 d= 0,ls=0.0,diis     6  -1425.8018994492 -2.06D-07  3.60D-06  5.25D-08    52.4
(nogshift,skip_gshiftAOev,done_Fji)=( 1,F,F)


         Total DFT energy =    -1425.801899449250
      One electron energy =    -2469.200974797697
           Coulomb energy =      880.841322625852
    Exchange-Corr. energy =      -90.832847787740
 Nuclear repulsion energy =      253.390600510335

       Scaling correction =        2.356967488060

 Numeric. integr. density =       58.000000336803

     Total iterative time =     15.4s



                  Occupations of the irreducible representations
                  ----------------------------------------------

                     irrep           alpha         beta
                     --------     --------     --------
                     a                11.0         11.0
                     e+               18.0         18.0
                     e-                0.0          0.0


 center of mass
 --------------
 x =  -0.00000000 y =   0.00000000 z =   0.02864048

 moments of inertia (a.u.)
 ------------------
         597.834768786275          -0.000000000000          -0.000000000000
          -0.000000000000         597.834768786275           0.000000000000
          -0.000000000000           0.000000000000        1159.131425608122
 Line search: 
     step= 1.00 grad=-1.6D-02 hess= 8.6D-03 energy=  -1425.801899 mode=accept  
 new step= 1.00                   predicted energy=  -1425.801899
  no constraints, skipping    0.0000000000000000     
  no constraints, skipping    0.0000000000000000     
  no constraints, skipping    0.0000000000000000     
  no constraints, skipping    0.0000000000000000     
  no constraints, skipping    0.0000000000000000     
  no constraints, skipping    0.0000000000000000     
  no constraints, skipping    0.0000000000000000     
  no constraints, skipping    0.0000000000000000     

          --------
          Step   1
          --------


                         Geometry "geometry" -> "geometry"
                         ---------------------------------

 Output coordinates in angstroms (scale by  1.889725989 to convert to a.u.)

  No.       Tag          Charge          X              Y              Z
 ---- ---------------- ---------- -------------- -------------- --------------
    1 Cl                  17.0000     0.44700464     1.70125630    -0.05000055
    2 C                    6.0000    -0.00000000     0.00000000     0.45718158
    3 Cl                  17.0000    -1.69683350    -0.46351078    -0.05000055
    4 Cl                  17.0000     1.24982886    -1.23774553    -0.05000055
    5 H                    1.0000    -0.00000000     0.00000000     1.53429783

      Atomic Mass 
      ----------- 

      Cl                34.968850
      C                 12.000000
      H                  1.007825


 Effective nuclear repulsion energy (a.u.)     253.3906005103

            Nuclear Dipole moment (a.u.) 
            ----------------------------
        X                 Y               Z
 ---------------- ---------------- ----------------
    -0.0000000000     0.0000000000     3.2642357726

      Symmetry information
      --------------------

 Group name             C3        
 Group number              5
 Group order               3
 No. of unique centers     3

      Symmetry unique atoms

     1    2    5


                                 NWChem DFT Module
                                 -----------------


                               Molecule conformer 0




 Summary of "ao basis" -> "ao basis" (spherical)
 ------------------------------------------------------------------------------
       Tag                 Description            Shells   Functions and Types
 ---------------- ------------------------------  ------  ---------------------
 Cl                          6-311G                 11       21   6s5p
 C                           6-311G                  7       13   4s3p
 H                           6-311G                  3        3   3s


      Symmetry analysis of basis
      --------------------------

        a          31
        e+         24
        e-         24


  The DFT is already converged 

         Total DFT energy =  -1425.801899449250


            General Information
            -------------------
          SCF calculation type: DFT
          Wavefunction type:  closed shell.
          No. of atoms     :     5
          No. of electrons :    58
           Alpha electrons :    29
            Beta electrons :    29
          Charge           :     0
          Spin multiplicity:     1
          Use of symmetry is: on ; symmetry adaption is: on 
          Maximum number of iterations: ***
          This is a Direct SCF calculation.
          AO basis - number of functions:    79
                     number of shells:    43
          Convergence on energy requested:  1.00D-06
          Convergence on density requested:  1.00D-05
          Convergence on gradient requested:  5.00D-04

              XC Information
              --------------
                         B3LYP Method XC Potential
                     Hartree-Fock (Exact) Exchange  0.200          
                        Slater Exchange Functional  0.800 local    
                    Becke 1988 Exchange Functional  0.720 non-local
              Lee-Yang-Parr Correlation Functional  0.810          
                  VWN I RPA Correlation Functional  0.190 local    

             Grid Information
             ----------------
          Grid used for XC integration:  fine      
          Radial quadrature: Mura-Knowles        
          Angular quadrature: Lebedev. 
          Tag              B.-S. Rad. Rad. Pts. Rad. Cut. Ang. Pts.
          ---              ---------- --------- --------- ---------
          Cl                  1.00      123          10.0       770
          C                   0.70       70           8.0       590
          H                   0.35       60           9.0       590
          Grid pruning is: on 
          Number of quadrature shells:   253
          Spatial weights used:  Erf1

          Convergence Information
          -----------------------
          Convergence aids based upon iterative change in 
          total energy or number of iterations. 
          Levelshifting, if invoked, occurs when the 
          HOMO/LUMO gap drops below (HL_TOL):  1.00D-02
          DIIS, if invoked, will attempt to extrapolate 
          using up to (NFOCK): 10 stored Fock matrices.

                    Damping( 0%)  Levelshifting(0.5)       DIIS
                  --------------- ------------------- ---------------
          dE  on:    start            ASAP                start   
          dE off:    2 iters        *** iters           *** iters 


      Screening Tolerance Information
      -------------------------------
          Density screening/tol_rho:  1.00D-10
          AO Gaussian exp screening on grid/accAOfunc:  14
          CD Gaussian exp screening on grid/accCDfunc:  20
          XC Gaussian exp screening on grid/accXCfunc:  20
          Schwarz screening/accCoul:  1.00D-08



                            NWChem DFT Gradient Module
                            --------------------------


                               Molecule conformer 0



  charge          =   0.00
  wavefunction    = closed shell

  Rotation of axis 
  Using symmetry


                         DFT ENERGY GRADIENTS

    atom               coordinates                        gradient
                 x          y          z           x          y          z
   1 Cl      0.844716   3.214908  -0.094487   -0.001141  -0.004316   0.005053
   2 C      -0.000000   0.000000   0.863948    0.000000   0.000000  -0.015395
   3 Cl     -3.206550  -0.875908  -0.094487    0.004308   0.001170   0.005053
   4 Cl      2.361834  -2.339000  -0.094487   -0.003167   0.003146   0.005053
   5 H      -0.000000   0.000000   2.899402   -0.000000   0.000000   0.000236

                 ----------------------------------------
                 |  Time  |  1-e(secs)   |  2-e(secs)   |
                 ----------------------------------------
                 |  CPU   |       0.00   |       0.11   |
                 ----------------------------------------
                 |  WALL  |       0.00   |       0.11   |
                 ----------------------------------------
  no constraints, skipping    0.0000000000000000     

  Step       Energy      Delta E   Gmax     Grms     Xrms     Xmax   Walltime
  ---- ---------------- -------- -------- -------- -------- -------- --------
@    1   -1425.80189945 -7.3D-03  0.00569  0.00415  0.09103  0.15417     55.2
                                                                    



                                Z-matrix (autoz)
                                -------- 

 Units are Angstrom for bonds and degrees for angles

      Type          Name      I     J     K     L     M      Value     Gradient
      ----------- --------  ----- ----- ----- ----- ----- ---------- ----------
    1 Stretch                  1     2                       1.83066   -0.00569
    2 Stretch                  2     3                       1.83066   -0.00569
    3 Stretch                  2     4                       1.83066   -0.00569
    4 Stretch                  2     5                       1.07712    0.00024
    5 Bend                     1     2     3               112.63543    0.00328
    6 Bend                     1     2     4               112.63543    0.00328
    7 Bend                     1     2     5               106.08414   -0.00379
    8 Bend                     3     2     4               112.63543    0.00328
    9 Bend                     3     2     5               106.08414   -0.00379
   10 Bend                     4     2     5               106.08414   -0.00379

  no constraints, skipping    0.0000000000000000     
  no constraints, skipping    0.0000000000000000     
  no constraints, skipping    0.0000000000000000     
  no constraints, skipping    0.0000000000000000     
  no constraints, skipping    0.0000000000000000     
  no constraints, skipping    0.0000000000000000     
  no constraints, skipping    0.0000000000000000     
  no constraints, skipping    0.0000000000000000     

                                 NWChem DFT Module
                                 -----------------


                               Molecule conformer 0




 Summary of "ao basis" -> "ao basis" (spherical)
 ------------------------------------------------------------------------------
       Tag                 Description            Shells   Functions and Types
 ---------------- ------------------------------  ------  ---------------------
 Cl                          6-311G                 11       21   6s5p
 C                           6-311G                  7       13   4s3p
 H                           6-311G                  3        3   3s


      Symmetry analysis of basis
      --------------------------

        a          31
        e+         24
        e-         24

  Caching 1-el integrals 
  Rotation of axis 

            General Information
            -------------------
          SCF calculation type: DFT
          Wavefunction type:  closed shell.
          No. of atoms     :     5
          No. of electrons :    58
           Alpha electrons :    29
            Beta electrons :    29
          Charge           :     0
          Spin multiplicity:     1
          Use of symmetry is: on ; symmetry adaption is: on 
          Maximum number of iterations: ***
          This is a Direct SCF calculation.
          AO basis - number of functions:    79
                     number of shells:    43
          Convergence on energy requested:  1.00D-06
          Convergence on density requested:  1.00D-05
          Convergence on gradient requested:  5.00D-04

              XC Information
              --------------
                         B3LYP Method XC Potential
                     Hartree-Fock (Exact) Exchange  0.200          
                        Slater Exchange Functional  0.800 local    
                    Becke 1988 Exchange Functional  0.720 non-local
              Lee-Yang-Parr Correlation Functional  0.810          
                  VWN I RPA Correlation Functional  0.190 local    

             Grid Information
             ----------------
          Grid used for XC integration:  fine      
          Radial quadrature: Mura-Knowles        
          Angular quadrature: Lebedev. 
          Tag              B.-S. Rad. Rad. Pts. Rad. Cut. Ang. Pts.
          ---              ---------- --------- --------- ---------
          Cl                  1.00      123          10.0       770
          C                   0.70       70           8.0       590
          H                   0.35       60           9.0       590
          Grid pruning is: on 
          Number of quadrature shells:   253
          Spatial weights used:  Erf1

          Convergence Information
          -----------------------
          Convergence aids based upon iterative change in 
          total energy or number of iterations. 
          Levelshifting, if invoked, occurs when the 
          HOMO/LUMO gap drops below (HL_TOL):  1.00D-02
          DIIS, if invoked, will attempt to extrapolate 
          using up to (NFOCK): 10 stored Fock matrices.

                    Damping( 0%)  Levelshifting(0.5)       DIIS
                  --------------- ------------------- ---------------
          dE  on:    start            ASAP                start   
          dE off:    2 iters        *** iters           *** iters 


      Screening Tolerance Information
      -------------------------------
          Density screening/tol_rho:  1.00D-10
          AO Gaussian exp screening on grid/accAOfunc:  14
          CD Gaussian exp screening on grid/accCDfunc:  20
          XC Gaussian exp screening on grid/accXCfunc:  20
          Schwarz screening/accCoul:  1.00D-08

          Performing ZORA calculations
          ----------------------------


      Superposition of Atomic Density Guess
      -------------------------------------

 Sum of atomic energies:       -1416.59893258

 Read atomic ZORA corrections from ./ClC(Cl)Cl_mol_0_conformer_0.zora_sf

 Forcing recalculation of ZORA corrections
       Generating atomic ZORA corrections
       ----------------------------------

 In dft_scf:: zora:Knucl= F

 Grid_pts file          = ./ClC(Cl)Cl_mol_0_conformer_0.gridpts.00
 Record size in doubles =  12289        No. of grid_pts per rec  =   3070
 Max. records in memory =      3        Max. recs in file   =     13537


 Wrote atomic ZORA corrections to ./ClC(Cl)Cl_mol_0_conformer_0.zora_sf


 Loading old vectors from job with title :

Molecule conformer 0


      Symmetry analysis of molecular orbitals - initial
      -------------------------------------------------

  Numbering of irreducible representations: 

     1 a           2 e+          3 e-      

  Orbital symmetries:

     1 e+          2 e+          3 a           4 a           5 e+      
     6 e+          7 a           8 a           9 e+         10 e+      
    11 a          12 e+         13 e+         14 e+         15 e+      
    16 a          17 a          18 e+         19 e+         20 a       
    21 a          22 e+         23 e+         24 e+         25 e+      
    26 e+         27 e+         28 a          29 a          30 a       
    31 e+         32 e+         33 a          34 e+         35 e+      
    36 a          37 a          38 e+         39 e+      

   Time after variat. SCF:     60.0
   Time prior to 1st pass:     60.0

           Memory utilization after 1st SCF pass: 
           Heap Space remaining (MW):      131.03           131031452
          Stack Space remaining (MW):      131.06           131058884

   convergence    iter        energy       DeltaE   RMS-Dens  Diis-err    time
 ---------------- ----- ----------------- --------- --------- ---------  ------
 d= 0,ls=0.0,diis     1  -1425.8019133931 -1.68D+03  1.27D-03  2.14D-03    62.7
 d= 0,ls=0.0,diis     2  -1425.8026036174 -6.90D-04  3.50D-04  3.38D-04    65.4
 d= 0,ls=0.0,diis     3  -1425.8025738276  2.98D-05  1.88D-04  6.21D-04    68.2
 d= 0,ls=0.0,diis     4  -1425.8026558905 -8.21D-05  1.90D-05  1.36D-06    70.9
 d= 0,ls=0.0,diis     5  -1425.8026560982 -2.08D-07  3.57D-06  4.48D-08    73.5
(nogshift,skip_gshiftAOev,done_Fji)=( 1,F,F)


         Total DFT energy =    -1425.802656098201
      One electron energy =    -2467.954611274828
           Coulomb energy =      880.222833026266
    Exchange-Corr. energy =      -90.820719685942
 Nuclear repulsion energy =      252.749841836304

       Scaling correction =        2.356956387464

 Numeric. integr. density =       58.000000245245

     Total iterative time =     13.6s



                  Occupations of the irreducible representations
                  ----------------------------------------------

                     irrep           alpha         beta
                     --------     --------     --------
                     a                11.0         11.0
                     e+               18.0         18.0
                     e-                0.0          0.0


 center of mass
 --------------
 x =   0.00000000 y =   0.00000000 z =   0.00288111

 moments of inertia (a.u.)
 ------------------
         599.417740875424           0.000000000000          -0.000000000000
           0.000000000000         599.417740875424          -0.000000000000
          -0.000000000000          -0.000000000000        1157.369786687485
 Line search: 
     step= 1.00 grad=-1.4D-03 hess= 6.5D-04 energy=  -1425.802656 mode=accept  
 new step= 1.00                   predicted energy=  -1425.802656
  no constraints, skipping    0.0000000000000000     
  no constraints, skipping    0.0000000000000000     
  no constraints, skipping    0.0000000000000000     
  no constraints, skipping    0.0000000000000000     
  no constraints, skipping    0.0000000000000000     
  no constraints, skipping    0.0000000000000000     
  no constraints, skipping    0.0000000000000000     
  no constraints, skipping    0.0000000000000000     

          --------
          Step   2
          --------


                         Geometry "geometry" -> "geometry"
                         ---------------------------------

 Output coordinates in angstroms (scale by  1.889725989 to convert to a.u.)

  No.       Tag          Charge          X              Y              Z
 ---- ---------------- ---------- -------------- -------------- --------------
    1 Cl                  17.0000     0.44666484     1.69996304    -0.06902709
    2 C                    6.0000     0.00000000     0.00000000     0.48730845
    3 Cl                  17.0000    -1.69554359    -0.46315842    -0.06902709
    4 Cl                  17.0000     1.24887876    -1.23680461    -0.06902709
    5 H                    1.0000     0.00000000     0.00000000     1.56125059

      Atomic Mass 
      ----------- 

      Cl                34.968850
      C                 12.000000
      H                  1.007825


 Effective nuclear repulsion energy (a.u.)     252.7498418363

            Nuclear Dipole moment (a.u.) 
            ----------------------------
        X                 Y               Z
 ---------------- ---------------- ----------------
    -0.0000000000    -0.0000000000     1.8230556207

      Symmetry information
      --------------------

 Group name             C3        
 Group number              5
 Group order               3
 No. of unique centers     3

      Symmetry unique atoms

     1    2    5


                                 NWChem DFT Module
                                 -----------------


                               Molecule conformer 0




 Summary of "ao basis" -> "ao basis" (spherical)
 ------------------------------------------------------------------------------
       Tag                 Description            Shells   Functions and Types
 ---------------- ------------------------------  ------  ---------------------
 Cl                          6-311G                 11       21   6s5p
 C                           6-311G                  7       13   4s3p
 H                           6-311G                  3        3   3s


      Symmetry analysis of basis
      --------------------------

        a          31
        e+         24
        e-         24


  The DFT is already converged 

         Total DFT energy =  -1425.802656098201


            General Information
            -------------------
          SCF calculation type: DFT
          Wavefunction type:  closed shell.
          No. of atoms     :     5
          No. of electrons :    58
           Alpha electrons :    29
            Beta electrons :    29
          Charge           :     0
          Spin multiplicity:     1
          Use of symmetry is: on ; symmetry adaption is: on 
          Maximum number of iterations: ***
          This is a Direct SCF calculation.
          AO basis - number of functions:    79
                     number of shells:    43
          Convergence on energy requested:  1.00D-06
          Convergence on density requested:  1.00D-05
          Convergence on gradient requested:  5.00D-04

              XC Information
              --------------
                         B3LYP Method XC Potential
                     Hartree-Fock (Exact) Exchange  0.200          
                        Slater Exchange Functional  0.800 local    
                    Becke 1988 Exchange Functional  0.720 non-local
              Lee-Yang-Parr Correlation Functional  0.810          
                  VWN I RPA Correlation Functional  0.190 local    

             Grid Information
             ----------------
          Grid used for XC integration:  fine      
          Radial quadrature: Mura-Knowles        
          Angular quadrature: Lebedev. 
          Tag              B.-S. Rad. Rad. Pts. Rad. Cut. Ang. Pts.
          ---              ---------- --------- --------- ---------
          Cl                  1.00      123          10.0       770
          C                   0.70       70           8.0       590
          H                   0.35       60           9.0       590
          Grid pruning is: on 
          Number of quadrature shells:   253
          Spatial weights used:  Erf1

          Convergence Information
          -----------------------
          Convergence aids based upon iterative change in 
          total energy or number of iterations. 
          Levelshifting, if invoked, occurs when the 
          HOMO/LUMO gap drops below (HL_TOL):  1.00D-02
          DIIS, if invoked, will attempt to extrapolate 
          using up to (NFOCK): 10 stored Fock matrices.

                    Damping( 0%)  Levelshifting(0.5)       DIIS
                  --------------- ------------------- ---------------
          dE  on:    start            ASAP                start   
          dE off:    2 iters        *** iters           *** iters 


      Screening Tolerance Information
      -------------------------------
          Density screening/tol_rho:  1.00D-10
          AO Gaussian exp screening on grid/accAOfunc:  14
          CD Gaussian exp screening on grid/accCDfunc:  20
          XC Gaussian exp screening on grid/accXCfunc:  20
          Schwarz screening/accCoul:  1.00D-08



                            NWChem DFT Gradient Module
                            --------------------------


                               Molecule conformer 0



  charge          =   0.00
  wavefunction    = closed shell

  Rotation of axis 
  Using symmetry


                         DFT ENERGY GRADIENTS

    atom               coordinates                        gradient
                 x          y          z           x          y          z
   1 Cl      0.844074   3.212464  -0.130442   -0.000284  -0.001055   0.000622
   2 C       0.000000   0.000000   0.920879    0.000000   0.000000   0.000002
   3 Cl     -3.204113  -0.875243  -0.130442    0.001055   0.000281   0.000622
   4 Cl      2.360039  -2.337222  -0.130442   -0.000771   0.000773   0.000622
   5 H       0.000000   0.000000   2.950336   -0.000000   0.000000  -0.001868

                 ----------------------------------------
                 |  Time  |  1-e(secs)   |  2-e(secs)   |
                 ----------------------------------------
                 |  CPU   |       0.00   |       0.11   |
                 ----------------------------------------
                 |  WALL  |       0.00   |       0.11   |
                 ----------------------------------------
  no constraints, skipping    0.0000000000000000     

  Step       Energy      Delta E   Gmax     Grms     Xrms     Xmax   Walltime
  ---- ---------------- -------- -------- -------- -------- -------- --------
@    2   -1425.80265610 -7.6D-04  0.00187  0.00092  0.02520  0.05631     76.3
                                                                    



                                Z-matrix (autoz)
                                -------- 

 Units are Angstrom for bonds and degrees for angles

      Type          Name      I     J     K     L     M      Value     Gradient
      ----------- --------  ----- ----- ----- ----- ----- ---------- ----------
    1 Stretch                  1     2                       1.84361   -0.00123
    2 Stretch                  2     3                       1.84361   -0.00123
    3 Stretch                  2     4                       1.84361   -0.00123
    4 Stretch                  2     5                       1.07394   -0.00187
    5 Bend                     1     2     3               111.30960    0.00024
    6 Bend                     1     2     4               111.30960    0.00024
    7 Bend                     1     2     5               107.56361   -0.00026
    8 Bend                     3     2     4               111.30960    0.00024
    9 Bend                     3     2     5               107.56361   -0.00026
   10 Bend                     4     2     5               107.56361   -0.00026

  no constraints, skipping    0.0000000000000000     
  no constraints, skipping    0.0000000000000000     
  no constraints, skipping    0.0000000000000000     
  no constraints, skipping    0.0000000000000000     
  no constraints, skipping    0.0000000000000000     
  no constraints, skipping    0.0000000000000000     
  no constraints, skipping    0.0000000000000000     
  no constraints, skipping    0.0000000000000000     

                                 NWChem DFT Module
                                 -----------------


                               Molecule conformer 0




 Summary of "ao basis" -> "ao basis" (spherical)
 ------------------------------------------------------------------------------
       Tag                 Description            Shells   Functions and Types
 ---------------- ------------------------------  ------  ---------------------
 Cl                          6-311G                 11       21   6s5p
 C                           6-311G                  7       13   4s3p
 H                           6-311G                  3        3   3s


      Symmetry analysis of basis
      --------------------------

        a          31
        e+         24
        e-         24

  Caching 1-el integrals 
  Rotation of axis 

            General Information
            -------------------
          SCF calculation type: DFT
          Wavefunction type:  closed shell.
          No. of atoms     :     5
          No. of electrons :    58
           Alpha electrons :    29
            Beta electrons :    29
          Charge           :     0
          Spin multiplicity:     1
          Use of symmetry is: on ; symmetry adaption is: on 
          Maximum number of iterations: ***
          This is a Direct SCF calculation.
          AO basis - number of functions:    79
                     number of shells:    43
          Convergence on energy requested:  1.00D-06
          Convergence on density requested:  1.00D-05
          Convergence on gradient requested:  5.00D-04

              XC Information
              --------------
                         B3LYP Method XC Potential
                     Hartree-Fock (Exact) Exchange  0.200          
                        Slater Exchange Functional  0.800 local    
                    Becke 1988 Exchange Functional  0.720 non-local
              Lee-Yang-Parr Correlation Functional  0.810          
                  VWN I RPA Correlation Functional  0.190 local    

             Grid Information
             ----------------
          Grid used for XC integration:  fine      
          Radial quadrature: Mura-Knowles        
          Angular quadrature: Lebedev. 
          Tag              B.-S. Rad. Rad. Pts. Rad. Cut. Ang. Pts.
          ---              ---------- --------- --------- ---------
          Cl                  1.00      123          10.0       770
          C                   0.70       70           8.0       590
          H                   0.35       60           9.0       590
          Grid pruning is: on 
          Number of quadrature shells:   253
          Spatial weights used:  Erf1

          Convergence Information
          -----------------------
          Convergence aids based upon iterative change in 
          total energy or number of iterations. 
          Levelshifting, if invoked, occurs when the 
          HOMO/LUMO gap drops below (HL_TOL):  1.00D-02
          DIIS, if invoked, will attempt to extrapolate 
          using up to (NFOCK): 10 stored Fock matrices.

                    Damping( 0%)  Levelshifting(0.5)       DIIS
                  --------------- ------------------- ---------------
          dE  on:    start            ASAP                start   
          dE off:    2 iters        *** iters           *** iters 


      Screening Tolerance Information
      -------------------------------
          Density screening/tol_rho:  1.00D-10
          AO Gaussian exp screening on grid/accAOfunc:  14
          CD Gaussian exp screening on grid/accCDfunc:  20
          XC Gaussian exp screening on grid/accXCfunc:  20
          Schwarz screening/accCoul:  1.00D-08

          Performing ZORA calculations
          ----------------------------


      Superposition of Atomic Density Guess
      -------------------------------------

 Sum of atomic energies:       -1416.59893258

 Read atomic ZORA corrections from ./ClC(Cl)Cl_mol_0_conformer_0.zora_sf

 Forcing recalculation of ZORA corrections
       Generating atomic ZORA corrections
       ----------------------------------

 In dft_scf:: zora:Knucl= F

 Grid_pts file          = ./ClC(Cl)Cl_mol_0_conformer_0.gridpts.00
 Record size in doubles =  12289        No. of grid_pts per rec  =   3070
 Max. records in memory =      3        Max. recs in file   =     13537


 Wrote atomic ZORA corrections to ./ClC(Cl)Cl_mol_0_conformer_0.zora_sf


 Loading old vectors from job with title :

Molecule conformer 0


      Symmetry analysis of molecular orbitals - initial
      -------------------------------------------------

  Numbering of irreducible representations: 

     1 a           2 e+          3 e-      

  Orbital symmetries:

     1 e+          2 e+          3 a           4 a           5 e+      
     6 e+          7 a           8 a           9 e+         10 e+      
    11 a          12 e+         13 e+         14 e+         15 e+      
    16 a          17 a          18 e+         19 e+         20 a       
    21 a          22 e+         23 e+         24 e+         25 e+      
    26 a          27 e+         28 e+         29 a          30 a       
    31 e+         32 e+         33 a          34 e+         35 e+      
    36 a          37 a          38 e+         39 e+      

   Time after variat. SCF:     82.2
   Time prior to 1st pass:     82.2

           Memory utilization after 1st SCF pass: 
           Heap Space remaining (MW):      131.03           131031452
          Stack Space remaining (MW):      131.06           131058884

   convergence    iter        energy       DeltaE   RMS-Dens  Diis-err    time
 ---------------- ----- ----------------- --------- --------- ---------  ------
 d= 0,ls=0.0,diis     1  -1425.8026612032 -1.68D+03  1.58D-04  5.63D-05    85.0
 d= 0,ls=0.0,diis     2  -1425.8026656801 -4.48D-06  7.91D-05  5.29D-05    88.0
 d= 0,ls=0.0,diis     3  -1425.8026711628 -5.48D-06  2.88D-05  1.33D-05    90.3
 d= 0,ls=0.0,diis     4  -1425.8026728989 -1.74D-06  2.90D-06  5.16D-08    93.1
 d= 0,ls=0.0,diis     5  -1425.8026729041 -5.19D-09  7.62D-07  3.71D-09    95.8
(nogshift,skip_gshiftAOev,done_Fji)=( 1,F,F)


         Total DFT energy =    -1425.802672904136
      One electron energy =    -2467.372729298758
           Coulomb energy =      879.932444354761
    Exchange-Corr. energy =      -90.816657386066
 Nuclear repulsion energy =      252.454269425927

       Scaling correction =        2.356963699987

 Numeric. integr. density =       58.000000262199

     Total iterative time =     13.6s



                  Occupations of the irreducible representations
                  ----------------------------------------------

                     irrep           alpha         beta
                     --------     --------     --------
                     a                11.0         11.0
                     e+               18.0         18.0
                     e-                0.0          0.0


 center of mass
 --------------
 x =   0.00000000 y =   0.00000000 z =  -0.00100108

 moments of inertia (a.u.)
 ------------------
         600.642934648690           0.000000000000           0.000000000000
           0.000000000000         600.642934648690          -0.000000000000
           0.000000000000          -0.000000000000        1159.206574779349
 Line search: 
     step= 1.00 grad=-3.7D-05 hess= 2.0D-05 energy=  -1425.802673 mode=accept  
 new step= 1.00                   predicted energy=  -1425.802673
  no constraints, skipping    0.0000000000000000     
  no constraints, skipping    0.0000000000000000     
  no constraints, skipping    0.0000000000000000     
  no constraints, skipping    0.0000000000000000     
  no constraints, skipping    0.0000000000000000     
  no constraints, skipping    0.0000000000000000     
  no constraints, skipping    0.0000000000000000     
  no constraints, skipping    0.0000000000000000     

          --------
          Step   3
          --------


                         Geometry "geometry" -> "geometry"
                         ---------------------------------

 Output coordinates in angstroms (scale by  1.889725989 to convert to a.u.)

  No.       Tag          Charge          X              Y              Z
 ---- ---------------- ---------- -------------- -------------- --------------
    1 Cl                  17.0000     0.44701913     1.70131145    -0.07167566
    2 C                    6.0000     0.00000000     0.00000000     0.48981968
    3 Cl                  17.0000    -1.69688850    -0.46352580    -0.07167566
    4 Cl                  17.0000     1.24986937    -1.23778565    -0.07167566
    5 H                    1.0000     0.00000000     0.00000000     1.56668505

      Atomic Mass 
      ----------- 

      Cl                34.968850
      C                 12.000000
      H                  1.007825


 Effective nuclear repulsion energy (a.u.)     252.4542694259

            Nuclear Dipole moment (a.u.) 
            ----------------------------
        X                 Y               Z
 ---------------- ---------------- ----------------
     0.0000000000    -0.0000000000     1.6065405396

      Symmetry information
      --------------------

 Group name             C3        
 Group number              5
 Group order               3
 No. of unique centers     3

      Symmetry unique atoms

     1    2    5


                                 NWChem DFT Module
                                 -----------------


                               Molecule conformer 0




 Summary of "ao basis" -> "ao basis" (spherical)
 ------------------------------------------------------------------------------
       Tag                 Description            Shells   Functions and Types
 ---------------- ------------------------------  ------  ---------------------
 Cl                          6-311G                 11       21   6s5p
 C                           6-311G                  7       13   4s3p
 H                           6-311G                  3        3   3s


      Symmetry analysis of basis
      --------------------------

        a          31
        e+         24
        e-         24


  The DFT is already converged 

         Total DFT energy =  -1425.802672904136


            General Information
            -------------------
          SCF calculation type: DFT
          Wavefunction type:  closed shell.
          No. of atoms     :     5
          No. of electrons :    58
           Alpha electrons :    29
            Beta electrons :    29
          Charge           :     0
          Spin multiplicity:     1
          Use of symmetry is: on ; symmetry adaption is: on 
          Maximum number of iterations: ***
          This is a Direct SCF calculation.
          AO basis - number of functions:    79
                     number of shells:    43
          Convergence on energy requested:  1.00D-06
          Convergence on density requested:  1.00D-05
          Convergence on gradient requested:  5.00D-04

              XC Information
              --------------
                         B3LYP Method XC Potential
                     Hartree-Fock (Exact) Exchange  0.200          
                        Slater Exchange Functional  0.800 local    
                    Becke 1988 Exchange Functional  0.720 non-local
              Lee-Yang-Parr Correlation Functional  0.810          
                  VWN I RPA Correlation Functional  0.190 local    

             Grid Information
             ----------------
          Grid used for XC integration:  fine      
          Radial quadrature: Mura-Knowles        
          Angular quadrature: Lebedev. 
          Tag              B.-S. Rad. Rad. Pts. Rad. Cut. Ang. Pts.
          ---              ---------- --------- --------- ---------
          Cl                  1.00      123          10.0       770
          C                   0.70       70           8.0       590
          H                   0.35       60           9.0       590
          Grid pruning is: on 
          Number of quadrature shells:   253
          Spatial weights used:  Erf1

          Convergence Information
          -----------------------
          Convergence aids based upon iterative change in 
          total energy or number of iterations. 
          Levelshifting, if invoked, occurs when the 
          HOMO/LUMO gap drops below (HL_TOL):  1.00D-02
          DIIS, if invoked, will attempt to extrapolate 
          using up to (NFOCK): 10 stored Fock matrices.

                    Damping( 0%)  Levelshifting(0.5)       DIIS
                  --------------- ------------------- ---------------
          dE  on:    start            ASAP                start   
          dE off:    2 iters        *** iters           *** iters 


      Screening Tolerance Information
      -------------------------------
          Density screening/tol_rho:  1.00D-10
          AO Gaussian exp screening on grid/accAOfunc:  14
          CD Gaussian exp screening on grid/accCDfunc:  20
          XC Gaussian exp screening on grid/accXCfunc:  20
          Schwarz screening/accCoul:  1.00D-08



                            NWChem DFT Gradient Module
                            --------------------------


                               Molecule conformer 0



  charge          =   0.00
  wavefunction    = closed shell

  Rotation of axis 
  Using symmetry


                         DFT ENERGY GRADIENTS

    atom               coordinates                        gradient
                 x          y          z           x          y          z
   1 Cl      0.844744   3.215012  -0.135447   -0.000049  -0.000159   0.000038
   2 C       0.000000   0.000000   0.925625   -0.000000   0.000000  -0.000277
   3 Cl     -3.206654  -0.875937  -0.135447    0.000162   0.000037   0.000038
   4 Cl      2.361911  -2.339076  -0.135447   -0.000114   0.000122   0.000038
   5 H       0.000000   0.000000   2.960605   -0.000000   0.000000   0.000161

                 ----------------------------------------
                 |  Time  |  1-e(secs)   |  2-e(secs)   |
                 ----------------------------------------
                 |  CPU   |       0.00   |       0.11   |
                 ----------------------------------------
                 |  WALL  |       0.00   |       0.11   |
                 ----------------------------------------
  no constraints, skipping    0.0000000000000000     

  Step       Energy      Delta E   Gmax     Grms     Xrms     Xmax   Walltime
  ---- ---------------- -------- -------- -------- -------- -------- --------
@    3   -1425.80267290 -1.7D-05  0.00017  0.00011  0.00386  0.01027     98.8
                                     ok       ok                    



                                Z-matrix (autoz)
                                -------- 

 Units are Angstrom for bonds and degrees for angles

      Type          Name      I     J     K     L     M      Value     Gradient
      ----------- --------  ----- ----- ----- ----- ----- ---------- ----------
    1 Stretch                  1     2                       1.84650   -0.00017
    2 Stretch                  2     3                       1.84650   -0.00017
    3 Stretch                  2     4                       1.84650   -0.00017
    4 Stretch                  2     5                       1.07687    0.00016
    5 Bend                     1     2     3               111.17989   -0.00001
    6 Bend                     1     2     4               111.17989   -0.00001
    7 Bend                     1     2     5               107.70320    0.00001
    8 Bend                     3     2     4               111.17989   -0.00001
    9 Bend                     3     2     5               107.70320    0.00001
   10 Bend                     4     2     5               107.70320    0.00001

  no constraints, skipping    0.0000000000000000     
  no constraints, skipping    0.0000000000000000     
  no constraints, skipping    0.0000000000000000     

                                 NWChem DFT Module
                                 -----------------


                               Molecule conformer 0




 Summary of "ao basis" -> "ao basis" (spherical)
 ------------------------------------------------------------------------------
       Tag                 Description            Shells   Functions and Types
 ---------------- ------------------------------  ------  ---------------------
 Cl                          6-311G                 11       21   6s5p
 C                           6-311G                  7       13   4s3p
 H                           6-311G                  3        3   3s


      Symmetry analysis of basis
      --------------------------

        a          31
        e+         24
        e-         24

  Caching 1-el integrals 
  Rotation of axis 

            General Information
            -------------------
          SCF calculation type: DFT
          Wavefunction type:  closed shell.
          No. of atoms     :     5
          No. of electrons :    58
           Alpha electrons :    29
            Beta electrons :    29
          Charge           :     0
          Spin multiplicity:     1
          Use of symmetry is: on ; symmetry adaption is: on 
          Maximum number of iterations: ***
          This is a Direct SCF calculation.
          AO basis - number of functions:    79
                     number of shells:    43
          Convergence on energy requested:  1.00D-06
          Convergence on density requested:  1.00D-05
          Convergence on gradient requested:  5.00D-04

              XC Information
              --------------
                         B3LYP Method XC Potential
                     Hartree-Fock (Exact) Exchange  0.200          
                        Slater Exchange Functional  0.800 local    
                    Becke 1988 Exchange Functional  0.720 non-local
              Lee-Yang-Parr Correlation Functional  0.810          
                  VWN I RPA Correlation Functional  0.190 local    

             Grid Information
             ----------------
          Grid used for XC integration:  fine      
          Radial quadrature: Mura-Knowles        
          Angular quadrature: Lebedev. 
          Tag              B.-S. Rad. Rad. Pts. Rad. Cut. Ang. Pts.
          ---              ---------- --------- --------- ---------
[...]
 -lineq- algorithm             =   0
 -bem- low  level              =   2
 -bem- from -octahedral-
 gaussian surface charge width =   0.98000
 degree of switching           =   1.00000
 switching function tolerance  =   0.00010
 atomic radii = 
 --------------
    1 17.000  2.050
    2  6.000  2.000
    3 17.000  2.050
    4 17.000  2.050
    5  1.000  1.300

 solvent accessible surface
 --------------------------

 ---------- ATOMIC COORDINATES (A.U.) ------------ VDWR(ANG.) --
     1    0.84492452    3.21570074   -0.13546965     2.050
     2    0.00000000    0.00000000    0.92588788     2.000
     3   -3.20734079   -0.87612427   -0.13546965     2.050
     4    2.36241627   -2.33957646   -0.13546965     2.050
     5    0.00000000    0.00000000    2.96040943     1.300
 number of segments per atom =         32
 number of   points per atom =         32
 atom (   nspa,  nppa )
 ----------------------
    1 (     24,     0 )       0
    2 (      6,     0 )       0
    3 (     24,     0 )       0
    4 (     21,     0 )       0
    5 (     16,     0 )       0
 number of -cosmo- surface points =       91
 molecular surface =    115.448 angstrom**2
 molecular volume  =     77.398 angstrom**3
 G(cav/disp)       =      1.437 kcal/mol
 ...... end of -cosmo- initialization ......


  Caching 1-el integrals 
  itol2e modified to match energy
  convergence criterion.

            General Information
            -------------------
          SCF calculation type: DFT
          Wavefunction type:  closed shell.
          No. of atoms     :     5
          No. of electrons :    58
           Alpha electrons :    29
            Beta electrons :    29
          Charge           :     0
          Spin multiplicity:     1
          Use of symmetry is: off; symmetry adaption is: off
          Maximum number of iterations: ***
          This is a Direct SCF calculation.
          AO basis - number of functions:    79
                     number of shells:    43
          Convergence on energy requested:  1.00D-07
          Convergence on density requested:  1.00D-05
          Convergence on gradient requested:  5.00D-04

              XC Information
              --------------
                         B3LYP Method XC Potential
                     Hartree-Fock (Exact) Exchange  0.200          
                        Slater Exchange Functional  0.800 local    
                    Becke 1988 Exchange Functional  0.720 non-local
              Lee-Yang-Parr Correlation Functional  0.810          
                  VWN I RPA Correlation Functional  0.190 local    

             Grid Information
             ----------------
          Grid used for XC integration:  fine      
          Radial quadrature: Mura-Knowles        
          Angular quadrature: Lebedev. 
          Tag              B.-S. Rad. Rad. Pts. Rad. Cut. Ang. Pts.
          ---              ---------- --------- --------- ---------
          Cl                  1.00      123          10.0       770
          C                   0.70       70           8.0       590
          H                   0.35       60           9.0       590
          Grid pruning is: on 
          Number of quadrature shells:   499
          Spatial weights used:  Erf1

          Convergence Information
          -----------------------
          Convergence aids based upon iterative change in 
          total energy or number of iterations. 
          Levelshifting, if invoked, occurs when the 
          HOMO/LUMO gap drops below (HL_TOL):  1.00D-02
          DIIS, if invoked, will attempt to extrapolate 
          using up to (NFOCK): 10 stored Fock matrices.

                    Damping( 0%)  Levelshifting(0.5)       DIIS
                  --------------- ------------------- ---------------
          dE  on:    start            ASAP                start   
          dE off:    2 iters        *** iters           *** iters 


      Screening Tolerance Information
      -------------------------------
          Density screening/tol_rho:  1.00D-11
          AO Gaussian exp screening on grid/accAOfunc:  16
          CD Gaussian exp screening on grid/accCDfunc:  20
          XC Gaussian exp screening on grid/accXCfunc:  20
          Schwarz screening/accCoul:  1.00D-08

          Performing ZORA calculations
          ----------------------------


      Superposition of Atomic Density Guess
      -------------------------------------

 Sum of atomic energies:       -1416.59893258

 Read atomic ZORA corrections from ./ClC(Cl)Cl_mol_0_conformer_0.zora_sf


 Loading old vectors from job with title :

Molecule conformer 0

   Time after variat. SCF:    596.4
   Time prior to 1st pass:    596.4

 Grid_pts file          = ./ClC(Cl)Cl_mol_0_conformer_0.gridpts.00
 Record size in doubles =  12289        No. of grid_pts per rec  =   3070
 Max. records in memory =      5        Max. recs in file   =     13537


           Memory utilization after 1st SCF pass: 
           Heap Space remaining (MW):      131.01           131006524
          Stack Space remaining (MW):      131.07           131071396

   convergence    iter        energy       DeltaE   RMS-Dens  Diis-err    time
 ---------------- ----- ----------------- --------- --------- ---------  ------
     COSMO gas phase
 d= 0,ls=0.0,diis     1  -1425.8026708339 -1.68D+03  4.03D-03  2.22D+02   599.9
 d= 0,ls=0.0,diis     2  -1426.0034961081 -2.01D-01  2.03D-03  1.54D-01   602.8
 d= 0,ls=0.0,diis     3  -1426.0034549992  4.11D-05  1.68D-03  1.52D-02   606.1
 d= 0,ls=0.0,diis     4  -1426.0047055728 -1.25D-03  5.86D-04  2.30D-03   609.6
 d= 0,ls=0.0,diis     5  -1426.0050421570 -3.37D-04  3.53D-05  6.16D-06   613.2
 d= 0,ls=0.0,diis     6  -1426.0050429961 -8.39D-07  8.93D-06  1.44D-06   616.5
 d= 0,ls=0.0,diis     7  -1426.0050431857 -1.90D-07  6.89D-07  1.77D-09   619.9
 d= 0,ls=0.0,diis     8  -1426.0050431860 -3.06D-10  1.09D-07  7.73D-11   623.2

           Memory utilization after 1st SCF pass: 
           Heap Space remaining (MW):      131.01           131006156
          Stack Space remaining (MW):      131.07           131071396

   convergence    iter        energy       DeltaE   RMS-Dens  Diis-err    time
 ---------------- ----- ----------------- --------- --------- ---------  ------
     COSMO solvation phase
 d= 0,ls=0.0,diis     1  -1426.0093283135 -4.29D-03  1.52D-03  1.72D-03   626.3
 d= 0,ls=0.0,diis     2  -1426.0098387168 -5.10D-04  3.89D-04  7.29D-04   630.0
 d= 0,ls=0.0,diis     3  -1426.0098713951 -3.27D-05  1.64D-04  5.95D-04   633.9
 d= 0,ls=0.0,diis     4  -1426.0099460875 -7.47D-05  2.27D-05  1.10D-06   637.3
 d= 0,ls=0.0,diis     5  -1426.0099462346 -1.47D-07  6.24D-06  3.55D-07   640.5
 d= 0,ls=0.0,diis     6  -1426.0099462749 -4.03D-08  1.07D-06  4.51D-09   643.5

      Commencing ZORA Property Calculations
      -------------------------------------

dia1(k,t,iat1,ispin)=(  1,  1,  5,  1)=(    17.68157817,    17.68157817) ppm
dia1(k,t,iat1,ispin)=(  1,  2,  5,  1)=(     0.01661097,     0.01661097) ppm
dia1(k,t,iat1,ispin)=(  1,  3,  5,  1)=(     0.01758441,     0.01758441) ppm
dia1(k,t,iat1,ispin)=(  2,  1,  5,  1)=(     0.01653481,     0.01653481) ppm
dia1(k,t,iat1,ispin)=(  2,  2,  5,  1)=(    17.68190305,    17.68190305) ppm
dia1(k,t,iat1,ispin)=(  2,  3,  5,  1)=(    -0.01746582,    -0.01746582) ppm
dia1(k,t,iat1,ispin)=(  3,  1,  5,  1)=(     0.02137198,     0.02137198) ppm
dia1(k,t,iat1,ispin)=(  3,  2,  5,  1)=(    -0.02106882,    -0.02106882) ppm
dia1(k,t,iat1,ispin)=(  3,  3,  5,  1)=(    42.46185054,    42.46185054) ppm
(dia2,par1)(k,t,iat1,spin)=(  1,  1,  5,  1)=(     5.41328295,     5.41328295,     0.87933133,     0.87933133) ppm
(dia2,par1)(k,t,iat1,spin)=(  2,  1,  5,  1)=(    -0.00249902,    -0.00249902,    -0.00715811,    -0.00715811) ppm
(dia2,par1)(k,t,iat1,spin)=(  3,  1,  5,  1)=(    -0.00429234,    -0.00429234,    -0.00827253,    -0.00827253) ppm
(dia2,par1)(k,t,iat1,spin)=(  1,  2,  5,  1)=(    -0.00253519,    -0.00253519,    -0.00705499,    -0.00705499) ppm
(dia2,par1)(k,t,iat1,spin)=(  2,  2,  5,  1)=(     5.41321129,     5.41321129,     0.87944970,     0.87944970) ppm
(dia2,par1)(k,t,iat1,spin)=(  3,  2,  5,  1)=(     0.00410378,     0.00410378,     0.00805814,     0.00805814) ppm
(dia2,par1)(k,t,iat1,spin)=(  1,  3,  5,  1)=(     0.00350516,     0.00350516,    -0.00658341,    -0.00658341) ppm
(dia2,par1)(k,t,iat1,spin)=(  2,  3,  5,  1)=(    -0.00351892,    -0.00351892,     0.00643566,     0.00643566) ppm
(dia2,par1)(k,t,iat1,spin)=(  3,  3,  5,  1)=(    -2.47930162,    -2.47930162,     2.73197715,     2.73197715) ppm

 Wrote ZORA NMR data to ./ClC(Cl)Cl_mol_0_conformer_0.zora_nmrcs

(nogshift,skip_gshiftAOev,done_Fji)=( 1,F,T)


         Total DFT energy =    -1426.009946274885
      One electron energy =    -2467.387630671128
           Coulomb energy =      879.900331015888
    Exchange-Corr. energy =      -90.829152829687
 Nuclear repulsion energy =      252.402496758868

             COSMO energy =       -0.095990548825

       Scaling correction =        2.473464873705

 Numeric. integr. density =       58.000000459248

     Total iterative time =     52.6s


                                   COSMO solvation results
                                   -----------------------

                 gas phase energy =     -1426.005043186009
                 sol phase energy =     -1426.009946274885
 (electrostatic) solvation energy =         0.004903088876 (    3.08 kcal/mol)

 center of mass
 --------------
 x =   0.00000000 y =   0.00000000 z =  -0.00099584

 moments of inertia (a.u.)
 ------------------
         600.896431060141           0.000000000000          -0.000000000000
           0.000000000000         600.896431060142           0.000000000000
          -0.000000000000           0.000000000000        1159.702954799721

            Scalar ZORA NMR Shielding
            -------------------------


          -----------------------------------------
          Chemical Shielding Tensors (GIAO, in ppm)
          -----------------------------------------


 Read ZORA NMR data from ./ClC(Cl)Cl_mol_0_conformer_0.zora_nmrcs

    0 giaofock schwarz done =      74.49%
    0 giaofock schwarz done =      61.03%
                                NWChem CPHF Module
                                ------------------



 solvent parameters
 solvname_short: cdcl3   
 solvname_long:  unknown                            
 dielec:       78.4000
 dielecinf:     1.7769

          ---------------
          -cosmo- solvent
          ---------------
 Cosmo: York-Karplus, doi: 10.1021/jp992097l
 dielectric constant -eps-     =  78.40
 screen = (eps-1)/(eps    )    =   0.98724
 surface charge correction     = lagrangian
 -lineq- algorithm             =   0
 -bem- low  level              =   2
 -bem- from -octahedral-
 gaussian surface charge width =   0.98000
 degree of switching           =   1.00000
 switching function tolerance  =   0.00010
 atomic radii = 
 --------------
    1 17.000  2.050
    2  6.000  2.000
    3 17.000  2.050
    4 17.000  2.050
    5  1.000  1.300

 solvent accessible surface
 --------------------------

 ---------- ATOMIC COORDINATES (A.U.) ------------ VDWR(ANG.) --
     1    0.84492452    3.21570074   -0.13546965     2.050
     2    0.00000000    0.00000000    0.92588788     2.000
     3   -3.20734079   -0.87612427   -0.13546965     2.050
     4    2.36241627   -2.33957646   -0.13546965     2.050
     5    0.00000000    0.00000000    2.96040943     1.300
 number of segments per atom =         32
 number of   points per atom =         32
 atom (   nspa,  nppa )
 ----------------------
    1 (     24,     0 )       0
    2 (      6,     0 )       0
    3 (     24,     0 )       0
    4 (     21,     0 )       0
    5 (     16,     0 )       0
 number of -cosmo- surface points =       91
 molecular surface =    115.448 angstrom**2
 molecular volume  =     77.398 angstrom**3
 G(cav/disp)       =      1.437 kcal/mol
 ...... end of -cosmo- initialization ......


  scftype          =     RHF 
  nclosed          =       29
  nopen            =        0
  variables        =     1450
  # of vectors     =        3
  tolerance        = 0.10D-03
  level shift      = 0.00D+00
  max iterations   =       50
  max subspace     =       30

 SCF residual:    6.0333997010684684E-005


Iterative solution of linear equations
  No. of variables     1450
  No. of equations        3
  Maximum subspace       30
        Iterations       50
       Convergence  1.0D-04
        Start time    658.4


   iter   nsub   residual    time
   ----  ------  --------  ---------
     1      3    5.99D-01     661.4
     2      6    2.03D-02     664.7
     3      9    1.27D-03     667.7
     4     12    4.08D-05     670.7

 Wrote CPHF data to ./ClC(Cl)Cl_mol_0_conformer_0.shieldcphf

 Calc. par tensor-> zora
      Atom:    1  H 
        Diamagnetic
     23.0949      0.0141      0.0191
      0.0141     23.0951     -0.0190
      0.0191     -0.0190     39.9825

        Paramagnetic
      0.9659      0.0028     -0.0079
      0.0028      0.9659      0.0078
     -0.0079      0.0078    -12.8707

        Total Shielding Tensor
     24.0608      0.0168      0.0112
      0.0168     24.0610     -0.0111
      0.0112     -0.0111     27.1119

           isotropic =      25.0779
          anisotropy =       3.0511

          Principal Components and Axis System
                 1           2           3
               27.1119     24.0777     24.0440

      1         0.0037      0.7048      0.7094
      2        -0.0036      0.7094     -0.7048
      3         1.0000     -0.0000     -0.0052




 Task  times  cpu:       77.9s     wall:       77.5s


                                NWChem Input Module
                                -------------------


 Summary of allocated global arrays
-----------------------------------
  array 0 => double precision sf 1(79,79),  handle: -987 
  array 1 => double precision sf 1(79,79),  handle: -986 
  array 2 => double precision sf 1(79,79),  handle: -985 
  array 3 => double precision sf 1(79,79),  handle: -984 
  array 4 => double precision sf 1(79,79),  handle: -983 
  array 5 => double precision sf 1(79,79),  handle: -982 
  array 6 => double precision sf 1(79,79),  handle: -981 
  array 7 => double precision sf 1(79,79),  handle: -980 
  array 8 => double precision sf 1(79,79),  handle: -979 
  array 9 => double precision sf 1(79,79),  handle: -978 
  array 10 => double precision sf 1(79,79),  handle: -977 
  array 11 => double precision sf 1(79,79),  handle: -976 
  array 12 => double precision sf 1(79,79),  handle: -975 
  array 13 => double precision sf 1(79,79),  handle: -974 
  array 14 => double precision sf 1(79,79),  handle: -973 
  array 15 => double precision sf 1(79,79),  handle: -972 
  array 16 => double precision sf 1(79,79),  handle: -971 
  array 17 => double precision sf 1(79,79),  handle: -970 
  array 18 => double precision sf 1(79,79),  handle: -969 
  array 19 => double precision sf 1(79,79),  handle: -968 
  array 20 => double precision sf 1(79,79),  handle: -967 
  array 21 => double precision sf 1(79,79),  handle: -966 
  array 22 => double precision sf 1(79,79),  handle: -965 
  array 23 => double precision sf 1(79,79),  handle: -964 



                         GA Statistics for process    0
                         ------------------------------

       create   destroy   get      put      acc     scatter   gather  read&inc
calls: 4765     4551     1.61e+05 3.88e+04 4.10e+04   60        0     5179     
number of processes/call 0.00e+00 0.00e+00 0.00e+00 0.00e+00 0.00e+00
bytes total:             2.98e+08 3.85e+07 2.07e+08 5.92e+02 0.00e+00 4.14e+04
bytes remote:            2.46e+08 2.74e+07 1.78e+08 -2.96e+02 0.00e+00 0.00e+00
Max memory consumed for GA by this process: 722032 bytes

MA_summarize_allocated_blocks: starting scan ...
MA_summarize_allocated_blocks: scan completed: 0 heap blocks, 0 stack blocks
MA usage statistics:

	allocation statistics:
					      heap	     stack
					      ----	     -----
	current number of blocks	         0	         0
	maximum number of blocks	        66	        59
	current total bytes		         0	         0
	maximum total bytes		   2379648	  22613800
	maximum total K-bytes		      2380	     22614
	maximum total M-bytes		         3	        23


                                     CITATION
                                     --------
                Please cite the following reference when publishing
                           results obtained with NWChem:

          E. Apr, E. J. Bylaska, W. A. de Jong, N. Govind, K. Kowalski,
       T. P. Straatsma, M. Valiev, H. J. J. van Dam, Y. Alexeev, J. Anchell,
       V. Anisimov, F. W. Aquino, R. Atta-Fynn, J. Autschbach, N. P. Bauman,
     J. C. Becca, D. E. Bernholdt, K. Bhaskaran-Nair, S. Bogatko, P. Borowski,
        J. Boschen, J. Brabec, A. Bruner, E. Caut, Y. Chen, G. N. Chuev,
      C. J. Cramer, J. Daily, M. J. O. Deegan, T. H. Dunning Jr., M. Dupuis,
   K. G. Dyall, G. I. Fann, S. A. Fischer, A. Fonari, H. Frchtl, L. Gagliardi,
      J. Garza, N. Gawande, S. Ghosh, K. Glaesemann, A. W. Gtz, J. Hammond,
       V. Helms, E. D. Hermes, K. Hirao, S. Hirata, M. Jacquelin, L. Jensen,
   B. G. Johnson, H. Jnsson, R. A. Kendall, M. Klemm, R. Kobayashi, V. Konkov,
      S. Krishnamoorthy, M. Krishnan, Z. Lin, R. D. Lins, R. J. Littlefield,
      A. J. Logsdail, K. Lopata, W. Ma, A. V. Marenich, J. Martin del Campo,
   D. Mejia-Rodriguez, J. E. Moore, J. M. Mullin, T. Nakajima, D. R. Nascimento,
    J. A. Nichols, P. J. Nichols, J. Nieplocha, A. Otero-de-la-Roza, B. Palmer,
    A. Panyala, T. Pirojsirikul, B. Peng, R. Peverati, J. Pittner, L. Pollack,
   R. M. Richard, P. Sadayappan, G. C. Schatz, W. A. Shelton, D. W. Silverstein,
   D. M. A. Smith, T. A. Soares, D. Song, M. Swart, H. L. Taylor, G. S. Thomas,
            V. Tipparaju, D. G. Truhlar, K. Tsemekhman, T. Van Voorhis,
     . Vzquez-Mayagoitia, P. Verma, O. Villa, A. Vishnu, K. D. Vogiatzis,
        D. Wang, J. H. Weare, M. J. Williamson, T. L. Windus, K. Woliski,
        A. T. Wong, Q. Wu, C. Yang, Q. Yu, M. Zacharias, Z. Zhang, Y. Zhao,
                                and R. J. Harrison
                        "NWChem: Past, present, and future
                         J. Chem. Phys. 152, 184102 (2020)
                               doi:10.1063/5.0004997

                                      AUTHORS
                                      -------
     E. Apra, E. J. Bylaska, N. Govind, K. Kowalski, M. Valiev, W. A. de Jong,
      T. P. Straatsma, H. J. J. van Dam, D. Wang, T. L. Windus, N. P. Bauman,
       A. Panyala, J. Hammond, J. Autschbach, K. Bhaskaran-Nair, J. Brabec,
    K. Lopata, S. A. Fischer, S. Krishnamoorthy, M. Jacquelin, W. Ma, M. Klemm,
       O. Villa, Y. Chen, V. Anisimov, F. Aquino, S. Hirata, M. T. Hackler,
           Eric Hermes, L. Jensen, J. E. Moore, J. C. Becca, V. Konjkov,
            D. Mejia-Rodriguez, T. Risthaus, M. Malagoli, A. Marenich,
   A. Otero-de-la-Roza, J. Mullin, P. Nichols, R. Peverati, J. Pittner, Y. Zhao,
        P.-D. Fan, A. Fonari, M. J. Williamson, R. J. Harrison, J. R. Rehr,
      M. Dupuis, D. Silverstein, D. M. A. Smith, J. Nieplocha, V. Tipparaju,
      M. Krishnan, B. E. Van Kuiken, A. Vazquez-Mayagoitia, M. Swart, Q. Wu,
   T. Van Voorhis, A. A. Auer, M. Nooijen, L. D. Crosby, E. Brown, G. Cisneros,
     G. I. Fann, H. Fruchtl, J. Garza, K. Hirao, R. A. Kendall, J. A. Nichols,
       K. Tsemekhman, K. Wolinski, J. Anchell, D. E. Bernholdt, P. Borowski,
       T. Clark, D. Clerc, H. Dachsel, M. J. O. Deegan, K. Dyall, D. Elwood,
      E. Glendening, M. Gutowski, A. C. Hess, J. Jaffe, B. G. Johnson, J. Ju,
        R. Kobayashi, R. Kutteh, Z. Lin, R. Littlefield, X. Long, B. Meng,
      T. Nakajima, S. Niu, L. Pollack, M. Rosing, K. Glaesemann, G. Sandrone,
      M. Stave, H. Taylor, G. Thomas, J. H. van Lenthe, A. T. Wong, Z. Zhang.

 Total times  cpu:      692.4s     wall:      670.8s
