 argument  1 = ClC(Cl)Cl_mol_1_conformer_0.nw



============================== echo of input deck ==============================
start

title "Molecule conformer 0"

memory total 4000 mb

echo
geometry units angstroms
   Cl    -0.9160    -1.4221    -0.3990
   C     -0.0001     0.0058     0.1336
   Cl    -0.7569     1.4742    -0.5238
   Cl     1.6743    -0.1115    -0.4528
   H     -0.0013     0.0536     1.2420
end


basis spherical
* library 6-311G
end

driver
  maxiter 500
  xyz final
end

relativistic
  zora on
  zora:cutoff_NMR 1d-8
  zora:cutoff 1d-30
end

dft
  direct
  grid fine
  xc B3LYP
  mult 1
  maxiter 1500
  noprint "final vectors analysis" multipole
end

task dft optimize

task dft freq

property
  shielding 1 5
end

cosmo
   solvent cdcl3
end

task dft property
================================================================================


                                         
                                         


             Northwest Computational Chemistry Package (NWChem) 7.0.2
             --------------------------------------------------------


                    Environmental Molecular Sciences Laboratory
                       Pacific Northwest National Laboratory
                                Richland, WA 99352

                              Copyright (c) 1994-2020
                       Pacific Northwest National Laboratory
                            Battelle Memorial Institute

             NWChem is an open-source computational chemistry package
                        distributed under the terms of the
                      Educational Community License (ECL) 2.0
             A copy of the license is included with this distribution
                              in the LICENSE.TXT file

                                  ACKNOWLEDGMENT
                                  --------------

            This software and its documentation were developed at the
            EMSL at Pacific Northwest National Laboratory, a multiprogram
            national laboratory, operated for the U.S. Department of Energy
            by Battelle under Contract Number DE-AC05-76RL01830. Support
            for this work was provided by the Department of Energy Office
            of Biological and Environmental Research, Office of Basic
            Energy Sciences, and the Office of Advanced Scientific Computing.


           Job information
           ---------------

    hostname        = ponder
    program         = nwchem
    date            = Mon Aug  5 13:10:44 2024

    compiled        = Sat_Apr_09_17:12:10_2022
    source          = /build/nwchem-f1f4gx/nwchem-7.0.2/build-openmpi
    nwchem branch   = 7.0.2
    nwchem revision = N/A
    ga revision     = 5.8.1
    use scalapack   = T
    input           = ClC(Cl)Cl_mol_1_conformer_0.nw
    prefix          = ClC(Cl)Cl_mol_1_conformer_0.
    data base       = ./ClC(Cl)Cl_mol_1_conformer_0.db
    status          = startup
    nproc           =       40
    time left       =     -1s



           Memory information
           ------------------

    heap     =  131071996 doubles =   1000.0 Mbytes
    stack    =  131072001 doubles =   1000.0 Mbytes
    global   =  262144000 doubles =   2000.0 Mbytes (distinct from heap & stack)
    total    =  524287997 doubles =   4000.0 Mbytes
    verify   = yes
    hardfail = no 


           Directory information
           ---------------------

  0 permanent = .
  0 scratch   = .




                                NWChem Input Module
                                -------------------


                               Molecule conformer 0
                               --------------------

 Scaling coordinates for geometry "geometry" by  1.889725989
 (inverse scale =  0.529177249)

 C3V symmetry detected

          ------
          auto-z
          ------
  Looking for out-of-plane bends
  no constraints, skipping    0.0000000000000000     
  no constraints, skipping    0.0000000000000000     


                             Geometry "geometry" -> ""
                             -------------------------

 Output coordinates in angstroms (scale by  1.889725989 to convert to a.u.)

  No.       Tag          Charge          X              Y              Z
 ---- ---------------- ---------- -------------- -------------- --------------
    1 Cl                  17.0000    -0.43385850     1.61918197    -0.09065928
    2 C                    6.0000    -0.00000000    -0.00000000     0.50202745
    3 Cl                  17.0000     1.61918197    -0.43385850    -0.09065928
    4 Cl                  17.0000    -1.18532347    -1.18532347    -0.09065928
    5 H                    1.0000    -0.00000000    -0.00000000     1.61145832

      Atomic Mass 
      ----------- 

      Cl                34.968850
      C                 12.000000
      H                  1.007825


 Effective nuclear repulsion energy (a.u.)     263.2508247527

            Nuclear Dipole moment (a.u.) 
            ----------------------------
        X                 Y               Z
 ---------------- ---------------- ----------------
    -0.0000000000    -0.0000000000     0.0000000000

      Symmetry information
      --------------------

 Group name             C3v       
 Group number             17
 Group order               6
 No. of unique centers     3

      Symmetry unique atoms

     1    2    5



                                Z-matrix (autoz)
                                -------- 

 Units are Angstrom for bonds and degrees for angles

      Type          Name      I     J     K     L     M      Value
      ----------- --------  ----- ----- ----- ----- ----- ----------
    1 Stretch                  1     2                       1.77799
    2 Stretch                  2     3                       1.77799
    3 Stretch                  2     4                       1.77799
    4 Stretch                  2     5                       1.10943
    5 Bend                     1     2     3               109.47046
    6 Bend                     1     2     4               109.47046
    7 Bend                     1     2     5               109.47198
    8 Bend                     3     2     4               109.47046
    9 Bend                     3     2     5               109.47198
   10 Bend                     4     2     5               109.47198


            XYZ format geometry
            -------------------
     5
 geometry
 Cl                   -0.43385850     1.61918197    -0.09065928
 C                    -0.00000000    -0.00000000     0.50202745
 Cl                    1.61918197    -0.43385850    -0.09065928
 Cl                   -1.18532347    -1.18532347    -0.09065928
 H                    -0.00000000    -0.00000000     1.61145832

 ==============================================================================
                                internuclear distances
 ------------------------------------------------------------------------------
       center one      |      center two      | atomic units |  angstroms
 ------------------------------------------------------------------------------
    2 C                |   1 Cl               |     3.35992  |     1.77799
    3 Cl               |   2 C                |     3.35992  |     1.77799
    4 Cl               |   2 C                |     3.35992  |     1.77799
    5 H                |   2 C                |     2.09652  |     1.10943
 ------------------------------------------------------------------------------
                         number of included internuclear distances:          4
 ==============================================================================



 ==============================================================================
                                 internuclear angles
 ------------------------------------------------------------------------------
        center 1       |       center 2       |       center 3       |  degrees
 ------------------------------------------------------------------------------
    1 Cl               |   2 C                |   3 Cl               |   109.47
    1 Cl               |   2 C                |   4 Cl               |   109.47
    1 Cl               |   2 C                |   5 H                |   109.47
    3 Cl               |   2 C                |   4 Cl               |   109.47
    3 Cl               |   2 C                |   5 H                |   109.47
    4 Cl               |   2 C                |   5 H                |   109.47
 ------------------------------------------------------------------------------
                            number of included internuclear angles:          6
 ==============================================================================





 Summary of "ao basis" -> "" (spherical)
 ------------------------------------------------------------------------------
       Tag                 Description            Shells   Functions and Types
 ---------------- ------------------------------  ------  ---------------------
 *                           6-311G                   on all atoms 




                           NWChem Geometry Optimization
                           ----------------------------




                               Molecule conformer 0


  no constraints, skipping    0.0000000000000000     
 maximum gradient threshold         (gmax) =   0.000450
 rms gradient threshold             (grms) =   0.000300
 maximum cartesian step threshold   (xmax) =   0.001800
 rms cartesian step threshold       (xrms) =   0.001200
 fixed trust radius                (trust) =   0.300000
 maximum step size to saddle      (sadstp) =   0.100000
 energy precision                  (eprec) =   5.0D-06
 maximum number of steps          (nptopt) =  500
 initial hessian option           (inhess) =    0
 line search option               (linopt) =    1
 hessian update option            (modupd) =    1
 saddle point option              (modsad) =    0
 initial eigen-mode to follow     (moddir) =    0
 initial variable to follow       (vardir) =    0
 follow first negative mode     (firstneg) =    T
 apply conjugacy                    (opcg) =    F
 source of zmatrix                         =   autoz   


          -------------------
          Energy Minimization
          -------------------


 Names of Z-matrix variables 
    1              2              3              4              5         
    6              7              8              9             10         

 Variables with the same non-blank name are constrained to be equal


 Using diagonal initial Hessian 
 Scaling for Hessian diagonals: bonds = 1.00  angles = 0.25  torsions = 0.10

          --------
          Step   0
          --------


                         Geometry "geometry" -> "geometry"
                         ---------------------------------

 Output coordinates in angstroms (scale by  1.889725989 to convert to a.u.)

  No.       Tag          Charge          X              Y              Z
 ---- ---------------- ---------- -------------- -------------- --------------
    1 Cl                  17.0000    -0.43385850     1.61918197    -0.09065928
    2 C                    6.0000    -0.00000000    -0.00000000     0.50202745
    3 Cl                  17.0000     1.61918197    -0.43385850    -0.09065928
    4 Cl                  17.0000    -1.18532347    -1.18532347    -0.09065928
    5 H                    1.0000    -0.00000000    -0.00000000     1.61145832

      Atomic Mass 
      ----------- 

      Cl                34.968850
      C                 12.000000
      H                  1.007825


 Effective nuclear repulsion energy (a.u.)     263.2508247527

            Nuclear Dipole moment (a.u.) 
            ----------------------------
        X                 Y               Z
 ---------------- ---------------- ----------------
    -0.0000000000    -0.0000000000     0.0000000000

      Symmetry information
      --------------------

 Group name             C3v       
 Group number             17
 Group order               6
 No. of unique centers     3

      Symmetry unique atoms

     1    2    5


                                 NWChem DFT Module
                                 -----------------


                               Molecule conformer 0


                      Basis "ao basis" -> "ao basis" (spherical)
                      -----
  Cl (Chlorine)
  -------------
            Exponent  Coefficients 
       -------------- ---------------------------------------------------------
  1 S  1.05819000E+05  0.000738
  1 S  1.58720000E+04  0.005718
  1 S  3.61965000E+03  0.029495
  1 S  1.03080000E+03  0.117286
  1 S  3.39908000E+02  0.362949
  1 S  1.24538000E+02  0.584149

  2 S  1.24538000E+02  0.134177
  2 S  4.95135000E+01  0.624250
  2 S  2.08056000E+01  0.291756

  3 S  6.58346000E+00  1.000000

  4 S  2.56468000E+00  1.000000

  5 S  5.59763000E-01  1.000000

  6 S  1.83273000E-01  1.000000

  7 P  5.89776000E+02  0.002391
  7 P  1.39849000E+02  0.018504
  7 P  4.51413000E+01  0.081377
  7 P  1.68733000E+01  0.221552
  7 P  6.74110000E+00  0.772569

  8 P  6.74110000E+00 -1.572244
  8 P  2.77152000E+00  0.992389

  9 P  1.02387000E+00  1.000000

 10 P  3.81368000E-01  1.000000

 11 P  1.09437000E-01  1.000000

  C (Carbon)
  ----------
            Exponent  Coefficients 
       -------------- ---------------------------------------------------------
  1 S  4.56324000E+03  0.001967
  1 S  6.82024000E+02  0.015231
  1 S  1.54973000E+02  0.076127
  1 S  4.44553000E+01  0.260801
  1 S  1.30290000E+01  0.616462
  1 S  1.82773000E+00  0.221006

  2 S  2.09642000E+01  0.114660
  2 S  4.80331000E+00  0.919999
  2 S  1.45933000E+00 -0.003031

  3 P  2.09642000E+01  0.040249
  3 P  4.80331000E+00  0.237594
  3 P  1.45933000E+00  0.815854

  4 S  4.83456000E-01  1.000000

  5 P  4.83456000E-01  1.000000

  6 S  1.45585000E-01  1.000000

  7 P  1.45585000E-01  1.000000

  H (Hydrogen)
  ------------
            Exponent  Coefficients 
       -------------- ---------------------------------------------------------
  1 S  3.38650000E+01  0.025494
  1 S  5.09479000E+00  0.190373
  1 S  1.15879000E+00  0.852161

  2 S  3.25840000E-01  1.000000

  3 S  1.02741000E-01  1.000000



 Summary of "ao basis" -> "ao basis" (spherical)
 ------------------------------------------------------------------------------
       Tag                 Description            Shells   Functions and Types
 ---------------- ------------------------------  ------  ---------------------
 Cl                          6-311G                 11       21   6s5p
 C                           6-311G                  7       13   4s3p
 H                           6-311G                  3        3   3s




 Summary of "ao basis" -> "ao basis" (spherical)
 ------------------------------------------------------------------------------
       Tag                 Description            Shells   Functions and Types
 ---------------- ------------------------------  ------  ---------------------
 Cl                          6-311G                 11       21   6s5p
 C                           6-311G                  7       13   4s3p
 H                           6-311G                  3        3   3s


      Symmetry analysis of basis
      --------------------------

        a1         26
        a2          5
        e          48

  Caching 1-el integrals 
  Rotation of axis 

            General Information
            -------------------
          SCF calculation type: DFT
          Wavefunction type:  closed shell.
          No. of atoms     :     5
          No. of electrons :    58
           Alpha electrons :    29
            Beta electrons :    29
          Charge           :     0
          Spin multiplicity:     1
          Use of symmetry is: on ; symmetry adaption is: on 
          Maximum number of iterations: ***
          This is a Direct SCF calculation.
          AO basis - number of functions:    79
                     number of shells:    43
          Convergence on energy requested:  1.00D-06
          Convergence on density requested:  1.00D-05
          Convergence on gradient requested:  5.00D-04

              XC Information
              --------------
                         B3LYP Method XC Potential
                     Hartree-Fock (Exact) Exchange  0.200          
                        Slater Exchange Functional  0.800 local    
                    Becke 1988 Exchange Functional  0.720 non-local
              Lee-Yang-Parr Correlation Functional  0.810          
                  VWN I RPA Correlation Functional  0.190 local    

             Grid Information
             ----------------
          Grid used for XC integration:  fine      
          Radial quadrature: Mura-Knowles        
          Angular quadrature: Lebedev. 
          Tag              B.-S. Rad. Rad. Pts. Rad. Cut. Ang. Pts.
          ---              ---------- --------- --------- ---------
          Cl                  1.00      123          10.0       770
          C                   0.70       70           8.0       590
          H                   0.35       60           9.0       590
          Grid pruning is: on 
          Number of quadrature shells:   253
          Spatial weights used:  Erf1

          Convergence Information
          -----------------------
          Convergence aids based upon iterative change in 
          total energy or number of iterations. 
          Levelshifting, if invoked, occurs when the 
          HOMO/LUMO gap drops below (HL_TOL):  1.00D-02
          DIIS, if invoked, will attempt to extrapolate 
          using up to (NFOCK): 10 stored Fock matrices.

                    Damping( 0%)  Levelshifting(0.5)       DIIS
                  --------------- ------------------- ---------------
          dE  on:    start            ASAP                start   
          dE off:    2 iters        *** iters           *** iters 


      Screening Tolerance Information
      -------------------------------
          Density screening/tol_rho:  1.00D-10
          AO Gaussian exp screening on grid/accAOfunc:  14
          CD Gaussian exp screening on grid/accCDfunc:  20
          XC Gaussian exp screening on grid/accXCfunc:  20
          Schwarz screening/accCoul:  1.00D-08

          Performing ZORA calculations
          ----------------------------


      Superposition of Atomic Density Guess
      -------------------------------------

 Sum of atomic energies:       -1416.59893258

 Read atomic ZORA corrections from ./ClC(Cl)Cl_mol_1_conformer_0.zora_sf

 dft_zora_read: failed to open./ClC(Cl)Cl_mol_1_conformer_0.zora_sf
 Forcing recalculation of ZORA corrections
       Generating atomic ZORA corrections
       ----------------------------------

 In dft_scf:: zora:Knucl= F

 Grid_pts file          = ./ClC(Cl)Cl_mol_1_conformer_0.gridpts.00
 Record size in doubles =  12289        No. of grid_pts per rec  =   3070
 Max. records in memory =      3        Max. recs in file   =     13527


 Wrote atomic ZORA corrections to ./ClC(Cl)Cl_mol_1_conformer_0.zora_sf


      Superposition of Atomic Density Guess
      -------------------------------------

 Sum of atomic energies:       -1416.59893258

      Non-variational initial energy
      ------------------------------

 Total energy =   -1417.653193
 1-e energy   =   -2481.035295
 2-e energy   =     800.131277
 HOMO         =      -0.374172
 LUMO         =       0.026460


      Symmetry analysis of molecular orbitals - initial
      -------------------------------------------------

  Numbering of irreducible representations: 

     1 a1          2 a2          3 e       

  Orbital symmetries:

     1 a1          2 e           3 e           4 a1          5 a1      
     6 e           7 e           8 a1          9 e          10 e       
    11 e          12 e          13 a1         14 e          15 e       
    16 a2         17 a1         18 e          19 e          20 a1      
    21 a1         22 e          23 e          24 e          25 e       
    26 e          27 e          28 a2         29 a1         30 a1      
    31 e          32 e          33 a1         34 e          35 e       
    36 a1         37 e          38 e          39 a1      

   Time after variat. SCF:      7.0
   Time prior to 1st pass:      7.0
 Grid integrated density:      58.000009329103
 Requested integration accuracy:   0.10E-06

           Memory utilization after 1st SCF pass: 
           Heap Space remaining (MW):      131.03           131031420
          Stack Space remaining (MW):      131.06           131058884

   convergence    iter        energy       DeltaE   RMS-Dens  Diis-err    time
 ---------------- ----- ----------------- --------- --------- ---------  ------
 d= 0,ls=0.0,diis     1  -1425.5097060444 -1.69D+03  2.51D-02  1.12D+02     9.7
 Grid integrated density:      58.000008622490
 Requested integration accuracy:   0.10E-06
 d= 0,ls=0.0,diis     2  -1425.2247870273  2.85D-01  3.55D-02  4.87D+00    12.8
 Grid integrated density:      58.000011233028
 Requested integration accuracy:   0.10E-06
 d= 0,ls=0.0,diis     3  -1424.8993837726  3.25D-01  2.43D-02  5.04D+00    15.8
 Grid integrated density:      58.000009179835
 Requested integration accuracy:   0.10E-06
 d= 0,ls=0.0,diis     4  -1425.7846916808 -8.85D-01  2.21D-03  8.49D-02    17.8
 Grid integrated density:      58.000009493069
 Requested integration accuracy:   0.10E-06
 d= 0,ls=0.0,diis     5  -1425.7939651289 -9.27D-03  6.85D-04  5.59D-03    20.6
  Resetting Diis
 d= 0,ls=0.0,diis     6  -1425.7946152695 -6.50D-04  9.44D-05  1.46D-04    24.1
 d= 0,ls=0.0,diis     7  -1425.7946329746 -1.77D-05  2.97D-05  1.84D-06    27.0
 d= 0,ls=0.0,diis     8  -1425.7946326180  3.57D-07  1.75D-05  4.67D-06    29.1
 d= 0,ls=0.0,diis     9  -1425.7946332340 -6.16D-07  2.37D-06  5.89D-08    31.8
(nogshift,skip_gshiftAOev,done_Fji)=( 1,F,F)


         Total DFT energy =    -1425.794633233951
      One electron energy =    -2488.891217373383
           Coulomb energy =      890.733984408596
    Exchange-Corr. energy =      -90.888225021840
 Nuclear repulsion energy =      263.250824752676

       Scaling correction =        2.359422032180

 Numeric. integr. density =       58.000001766596

     Total iterative time =     24.9s



                  Occupations of the irreducible representations
                  ----------------------------------------------

                     irrep           alpha         beta
                     --------     --------     --------
                     a1                9.0          9.0
                     a2                2.0          2.0
                     e                18.0         18.0


 center of mass
 --------------
 x =  -0.00000000 y =  -0.00000000 z =  -0.02984657

 moments of inertia (a.u.)
 ------------------
         549.469507827194           0.000000000000           0.000000000000
           0.000000000000         549.469507827194           0.000000000000
           0.000000000000           0.000000000000        1052.698587830479

            General Information
            -------------------
          SCF calculation type: DFT
          Wavefunction type:  closed shell.
          No. of atoms     :     5
          No. of electrons :    58
           Alpha electrons :    29
            Beta electrons :    29
          Charge           :     0
          Spin multiplicity:     1
          Use of symmetry is: on ; symmetry adaption is: on 
          Maximum number of iterations: ***
          This is a Direct SCF calculation.
          AO basis - number of functions:    79
                     number of shells:    43
          Convergence on energy requested:  1.00D-06
          Convergence on density requested:  1.00D-05
          Convergence on gradient requested:  5.00D-04

              XC Information
              --------------
                         B3LYP Method XC Potential
                     Hartree-Fock (Exact) Exchange  0.200          
                        Slater Exchange Functional  0.800 local    
                    Becke 1988 Exchange Functional  0.720 non-local
              Lee-Yang-Parr Correlation Functional  0.810          
                  VWN I RPA Correlation Functional  0.190 local    

             Grid Information
             ----------------
          Grid used for XC integration:  fine      
          Radial quadrature: Mura-Knowles        
          Angular quadrature: Lebedev. 
          Tag              B.-S. Rad. Rad. Pts. Rad. Cut. Ang. Pts.
          ---              ---------- --------- --------- ---------
          Cl                  1.00      123          10.0       770
          C                   0.70       70           8.0       590
          H                   0.35       60           9.0       590
          Grid pruning is: on 
          Number of quadrature shells:   253
          Spatial weights used:  Erf1

          Convergence Information
          -----------------------
          Convergence aids based upon iterative change in 
          total energy or number of iterations. 
          Levelshifting, if invoked, occurs when the 
          HOMO/LUMO gap drops below (HL_TOL):  1.00D-02
          DIIS, if invoked, will attempt to extrapolate 
          using up to (NFOCK): 10 stored Fock matrices.

                    Damping( 0%)  Levelshifting(0.5)       DIIS
                  --------------- ------------------- ---------------
          dE  on:    start            ASAP                start   
          dE off:    2 iters        *** iters           *** iters 


      Screening Tolerance Information
      -------------------------------
          Density screening/tol_rho:  1.00D-10
          AO Gaussian exp screening on grid/accAOfunc:  14
          CD Gaussian exp screening on grid/accCDfunc:  20
          XC Gaussian exp screening on grid/accXCfunc:  20
          Schwarz screening/accCoul:  1.00D-08



                            NWChem DFT Gradient Module
                            --------------------------


                               Molecule conformer 0



  charge          =   0.00
  wavefunction    = closed shell

  Rotation of axis 
  Using symmetry


                         DFT ENERGY GRADIENTS

    atom               coordinates                        gradient
                 x          y          z           x          y          z
   1 Cl     -0.819874   3.059810  -0.171321    0.009093  -0.033936   0.004476
   2 C      -0.000000  -0.000000   0.948694    0.000000   0.000000  -0.033792
   3 Cl      3.059810  -0.819874  -0.171321   -0.033936   0.009093   0.004476
   4 Cl     -2.239937  -2.239937  -0.171321    0.024843   0.024843   0.004476
   5 H      -0.000000  -0.000000   3.045215   -0.000000  -0.000000   0.020365

                 ----------------------------------------
                 |  Time  |  1-e(secs)   |  2-e(secs)   |
                 ----------------------------------------
                 |  CPU   |       0.00   |       0.11   |
                 ----------------------------------------
                 |  WALL  |       0.00   |       0.11   |
                 ----------------------------------------
  no constraints, skipping    0.0000000000000000     

@ Step       Energy      Delta E   Gmax     Grms     Xrms     Xmax   Walltime
@ ---- ---------------- -------- -------- -------- -------- -------- --------
@    0   -1425.79463323  0.0D+00  0.03462  0.02068  0.00000  0.00000     33.9
                                                                    



                                Z-matrix (autoz)
                                -------- 

 Units are Angstrom for bonds and degrees for angles

      Type          Name      I     J     K     L     M      Value     Gradient
      ----------- --------  ----- ----- ----- ----- ----- ---------- ----------
    1 Stretch                  1     2                       1.77799   -0.03462
    2 Stretch                  2     3                       1.77799   -0.03462
    3 Stretch                  2     4                       1.77799   -0.03462
    4 Stretch                  2     5                       1.10943    0.02037
    5 Bend                     1     2     3               109.47046   -0.00666
    6 Bend                     1     2     4               109.47046   -0.00666
    7 Bend                     1     2     5               109.47198    0.00666
    8 Bend                     3     2     4               109.47046   -0.00666
    9 Bend                     3     2     5               109.47198    0.00666
   10 Bend                     4     2     5               109.47198    0.00666

  no constraints, skipping    0.0000000000000000     
  no constraints, skipping    0.0000000000000000     
  no constraints, skipping    0.0000000000000000     
  no constraints, skipping    0.0000000000000000     
  no constraints, skipping    0.0000000000000000     
  no constraints, skipping    0.0000000000000000     
  no constraints, skipping    0.0000000000000000     
  no constraints, skipping    0.0000000000000000     

                                 NWChem DFT Module
                                 -----------------


                               Molecule conformer 0




 Summary of "ao basis" -> "ao basis" (spherical)
 ------------------------------------------------------------------------------
       Tag                 Description            Shells   Functions and Types
 ---------------- ------------------------------  ------  ---------------------
 Cl                          6-311G                 11       21   6s5p
 C                           6-311G                  7       13   4s3p
 H                           6-311G                  3        3   3s


      Symmetry analysis of basis
      --------------------------

        a1         26
        a2          5
        e          48

  Caching 1-el integrals 
  Rotation of axis 

            General Information
            -------------------
          SCF calculation type: DFT
          Wavefunction type:  closed shell.
          No. of atoms     :     5
          No. of electrons :    58
           Alpha electrons :    29
            Beta electrons :    29
          Charge           :     0
          Spin multiplicity:     1
          Use of symmetry is: on ; symmetry adaption is: on 
          Maximum number of iterations: ***
          This is a Direct SCF calculation.
          AO basis - number of functions:    79
                     number of shells:    43
          Convergence on energy requested:  1.00D-06
          Convergence on density requested:  1.00D-05
          Convergence on gradient requested:  5.00D-04

              XC Information
              --------------
                         B3LYP Method XC Potential
                     Hartree-Fock (Exact) Exchange  0.200          
                        Slater Exchange Functional  0.800 local    
                    Becke 1988 Exchange Functional  0.720 non-local
              Lee-Yang-Parr Correlation Functional  0.810          
                  VWN I RPA Correlation Functional  0.190 local    

             Grid Information
             ----------------
          Grid used for XC integration:  fine      
          Radial quadrature: Mura-Knowles        
          Angular quadrature: Lebedev. 
          Tag              B.-S. Rad. Rad. Pts. Rad. Cut. Ang. Pts.
          ---              ---------- --------- --------- ---------
          Cl                  1.00      123          10.0       770
          C                   0.70       70           8.0       590
          H                   0.35       60           9.0       590
          Grid pruning is: on 
          Number of quadrature shells:   253
          Spatial weights used:  Erf1

          Convergence Information
          -----------------------
          Convergence aids based upon iterative change in 
          total energy or number of iterations. 
          Levelshifting, if invoked, occurs when the 
          HOMO/LUMO gap drops below (HL_TOL):  1.00D-02
          DIIS, if invoked, will attempt to extrapolate 
          using up to (NFOCK): 10 stored Fock matrices.

                    Damping( 0%)  Levelshifting(0.5)       DIIS
                  --------------- ------------------- ---------------
          dE  on:    start            ASAP                start   
          dE off:    2 iters        *** iters           *** iters 


      Screening Tolerance Information
      -------------------------------
          Density screening/tol_rho:  1.00D-10
          AO Gaussian exp screening on grid/accAOfunc:  14
          CD Gaussian exp screening on grid/accCDfunc:  20
          XC Gaussian exp screening on grid/accXCfunc:  20
          Schwarz screening/accCoul:  1.00D-08

          Performing ZORA calculations
          ----------------------------


      Superposition of Atomic Density Guess
      -------------------------------------

 Sum of atomic energies:       -1416.59893258

 Read atomic ZORA corrections from ./ClC(Cl)Cl_mol_1_conformer_0.zora_sf

 Forcing recalculation of ZORA corrections
       Generating atomic ZORA corrections
       ----------------------------------

 In dft_scf:: zora:Knucl= F

 Grid_pts file          = ./ClC(Cl)Cl_mol_1_conformer_0.gridpts.00
 Record size in doubles =  12289        No. of grid_pts per rec  =   3070
 Max. records in memory =      3        Max. recs in file   =     13527


 Wrote atomic ZORA corrections to ./ClC(Cl)Cl_mol_1_conformer_0.zora_sf


 Loading old vectors from job with title :

Molecule conformer 0


      Symmetry analysis of molecular orbitals - initial
      -------------------------------------------------

  Numbering of irreducible representations: 

     1 a1          2 a2          3 e       

  Orbital symmetries:

     1 e           2 e           3 a1          4 a1          5 e       
     6 e           7 a1          8 a1          9 e          10 e       
    11 a2         12 e          13 e          14 e          15 e       
    16 a1         17 a1         18 e          19 e          20 a1      
    21 a1         22 e          23 e          24 e          25 e       
    26 a1         27 e          28 e          29 a2         30 a1      
    31 e          32 e          33 a1         34 e          35 e       
    36 a1         37 e          38 e          39 a1      

   Time after variat. SCF:     39.1
   Time prior to 1st pass:     39.1

           Memory utilization after 1st SCF pass: 
           Heap Space remaining (MW):      131.03           131031420
          Stack Space remaining (MW):      131.06           131058884

   convergence    iter        energy       DeltaE   RMS-Dens  Diis-err    time
 ---------------- ----- ----------------- --------- --------- ---------  ------
 d= 0,ls=0.0,diis     1  -1425.7961588323 -1.68D+03  3.76D-03  2.31D-02    41.9
 d= 0,ls=0.0,diis     2  -1425.8005204161 -4.36D-03  1.34D-03  1.02D-02    44.3
 d= 0,ls=0.0,diis     3  -1425.8009015280 -3.81D-04  7.01D-04  7.63D-03    47.5
 d= 0,ls=0.0,diis     4  -1425.8018972579 -9.96D-04  6.78D-05  1.25D-05    49.9
 d= 0,ls=0.0,diis     5  -1425.8018994001 -2.14D-06  1.58D-05  1.72D-06    52.0
 d= 0,ls=0.0,diis     6  -1425.8018996056 -2.05D-07  3.60D-06  5.25D-08    54.4
(nogshift,skip_gshiftAOev,done_Fji)=( 1,F,F)


         Total DFT energy =    -1425.801899605635
      One electron energy =    -2469.199023487786
           Coulomb energy =      880.840351492757
    Exchange-Corr. energy =      -90.832832040894
 Nuclear repulsion energy =      253.389604430289

       Scaling correction =        2.359570821050

 Numeric. integr. density =       57.999999884155

     Total iterative time =     15.4s



                  Occupations of the irreducible representations
                  ----------------------------------------------

                     irrep           alpha         beta
                     --------     --------     --------
                     a1                9.0          9.0
                     a2                2.0          2.0
                     e                18.0         18.0


 center of mass
 --------------
 x =   0.00000000 y =   0.00000000 z =   0.02863174

 moments of inertia (a.u.)
 ------------------
         597.838444826979          -0.000000000000           0.000000000000
          -0.000000000000         597.838444826979           0.000000000000
           0.000000000000           0.000000000000        1159.135322731507
 Line search: 
     step= 1.00 grad=-1.6D-02 hess= 8.6D-03 energy=  -1425.801900 mode=accept  
 new step= 1.00                   predicted energy=  -1425.801900
  no constraints, skipping    0.0000000000000000     
  no constraints, skipping    0.0000000000000000     
  no constraints, skipping    0.0000000000000000     
  no constraints, skipping    0.0000000000000000     
  no constraints, skipping    0.0000000000000000     
  no constraints, skipping    0.0000000000000000     
  no constraints, skipping    0.0000000000000000     
  no constraints, skipping    0.0000000000000000     

          --------
          Step   1
          --------


                         Geometry "geometry" -> "geometry"
                         ---------------------------------

 Output coordinates in angstroms (scale by  1.889725989 to convert to a.u.)

  No.       Tag          Charge          X              Y              Z
 ---- ---------------- ---------- -------------- -------------- --------------
    1 Cl                  17.0000    -0.45526385     1.69906780    -0.05000903
    2 C                    6.0000    -0.00000000    -0.00000000     0.45720775
    3 Cl                  17.0000     1.69906780    -0.45526385    -0.05000903
    4 Cl                  17.0000    -1.24380396    -1.24380396    -0.05000903
    5 H                    1.0000     0.00000000    -0.00000000     1.53432728

      Atomic Mass 
      ----------- 

      Cl                34.968850
      C                 12.000000
      H                  1.007825


 Effective nuclear repulsion energy (a.u.)     253.3896044303

            Nuclear Dipole moment (a.u.) 
            ----------------------------
        X                 Y               Z
 ---------------- ---------------- ----------------
     0.0000000000     0.0000000000     3.2637709265

      Symmetry information
      --------------------

 Group name             C3v       
 Group number             17
 Group order               6
 No. of unique centers     3

      Symmetry unique atoms

     1    2    5


                                 NWChem DFT Module
                                 -----------------


                               Molecule conformer 0




 Summary of "ao basis" -> "ao basis" (spherical)
 ------------------------------------------------------------------------------
       Tag                 Description            Shells   Functions and Types
 ---------------- ------------------------------  ------  ---------------------
 Cl                          6-311G                 11       21   6s5p
 C                           6-311G                  7       13   4s3p
 H                           6-311G                  3        3   3s


      Symmetry analysis of basis
      --------------------------

        a1         26
        a2          5
        e          48


  The DFT is already converged 

         Total DFT energy =  -1425.801899605635


            General Information
            -------------------
          SCF calculation type: DFT
          Wavefunction type:  closed shell.
          No. of atoms     :     5
          No. of electrons :    58
           Alpha electrons :    29
            Beta electrons :    29
          Charge           :     0
          Spin multiplicity:     1
          Use of symmetry is: on ; symmetry adaption is: on 
          Maximum number of iterations: ***
          This is a Direct SCF calculation.
          AO basis - number of functions:    79
                     number of shells:    43
          Convergence on energy requested:  1.00D-06
          Convergence on density requested:  1.00D-05
          Convergence on gradient requested:  5.00D-04

              XC Information
              --------------
                         B3LYP Method XC Potential
                     Hartree-Fock (Exact) Exchange  0.200          
                        Slater Exchange Functional  0.800 local    
                    Becke 1988 Exchange Functional  0.720 non-local
              Lee-Yang-Parr Correlation Functional  0.810          
                  VWN I RPA Correlation Functional  0.190 local    

             Grid Information
             ----------------
          Grid used for XC integration:  fine      
          Radial quadrature: Mura-Knowles        
          Angular quadrature: Lebedev. 
          Tag              B.-S. Rad. Rad. Pts. Rad. Cut. Ang. Pts.
          ---              ---------- --------- --------- ---------
          Cl                  1.00      123          10.0       770
          C                   0.70       70           8.0       590
          H                   0.35       60           9.0       590
          Grid pruning is: on 
          Number of quadrature shells:   253
          Spatial weights used:  Erf1

          Convergence Information
          -----------------------
          Convergence aids based upon iterative change in 
          total energy or number of iterations. 
          Levelshifting, if invoked, occurs when the 
          HOMO/LUMO gap drops below (HL_TOL):  1.00D-02
          DIIS, if invoked, will attempt to extrapolate 
          using up to (NFOCK): 10 stored Fock matrices.

                    Damping( 0%)  Levelshifting(0.5)       DIIS
                  --------------- ------------------- ---------------
          dE  on:    start            ASAP                start   
          dE off:    2 iters        *** iters           *** iters 


      Screening Tolerance Information
      -------------------------------
          Density screening/tol_rho:  1.00D-10
          AO Gaussian exp screening on grid/accAOfunc:  14
          CD Gaussian exp screening on grid/accCDfunc:  20
          XC Gaussian exp screening on grid/accXCfunc:  20
          Schwarz screening/accCoul:  1.00D-08



                            NWChem DFT Gradient Module
                            --------------------------


                               Molecule conformer 0



  charge          =   0.00
  wavefunction    = closed shell

  Rotation of axis 
  Using symmetry


                         DFT ENERGY GRADIENTS

    atom               coordinates                        gradient
                 x          y          z           x          y          z
   1 Cl     -0.860324   3.210773  -0.094503    0.001156  -0.004315   0.005052
   2 C      -0.000000  -0.000000   0.863997    0.000000   0.000000  -0.015394
   3 Cl      3.210773  -0.860324  -0.094503   -0.004315   0.001156   0.005052
   4 Cl     -2.350449  -2.350449  -0.094503    0.003159   0.003159   0.005052
   5 H       0.000000  -0.000000   2.899458    0.000000   0.000000   0.000238

                 ----------------------------------------
                 |  Time  |  1-e(secs)   |  2-e(secs)   |
                 ----------------------------------------
                 |  CPU   |       0.00   |       0.11   |
                 ----------------------------------------
                 |  WALL  |       0.00   |       0.11   |
                 ----------------------------------------
  no constraints, skipping    0.0000000000000000     

  Step       Energy      Delta E   Gmax     Grms     Xrms     Xmax   Walltime
  ---- ---------------- -------- -------- -------- -------- -------- --------
@    1   -1425.80189961 -7.3D-03  0.00569  0.00415  0.09101  0.15421     57.2
                                                                    



                                Z-matrix (autoz)
                                -------- 

 Units are Angstrom for bonds and degrees for angles

      Type          Name      I     J     K     L     M      Value     Gradient
      ----------- --------  ----- ----- ----- ----- ----- ---------- ----------
    1 Stretch                  1     2                       1.83067   -0.00569
    2 Stretch                  2     3                       1.83067   -0.00569
    3 Stretch                  2     4                       1.83067   -0.00569
    4 Stretch                  2     5                       1.07712    0.00024
    5 Bend                     1     2     3               112.63455    0.00328
    6 Bend                     1     2     4               112.63455    0.00328
    7 Bend                     1     2     5               106.08515   -0.00379
    8 Bend                     3     2     4               112.63455    0.00328
    9 Bend                     3     2     5               106.08515   -0.00379
   10 Bend                     4     2     5               106.08515   -0.00379

  no constraints, skipping    0.0000000000000000     
  no constraints, skipping    0.0000000000000000     
  no constraints, skipping    0.0000000000000000     
  no constraints, skipping    0.0000000000000000     
  no constraints, skipping    0.0000000000000000     
  no constraints, skipping    0.0000000000000000     
  no constraints, skipping    0.0000000000000000     
  no constraints, skipping    0.0000000000000000     

                                 NWChem DFT Module
                                 -----------------


                               Molecule conformer 0




 Summary of "ao basis" -> "ao basis" (spherical)
 ------------------------------------------------------------------------------
       Tag                 Description            Shells   Functions and Types
 ---------------- ------------------------------  ------  ---------------------
 Cl                          6-311G                 11       21   6s5p
 C                           6-311G                  7       13   4s3p
 H                           6-311G                  3        3   3s


      Symmetry analysis of basis
      --------------------------

        a1         26
        a2          5
        e          48

  Caching 1-el integrals 
  Rotation of axis 

            General Information
            -------------------
          SCF calculation type: DFT
          Wavefunction type:  closed shell.
          No. of atoms     :     5
          No. of electrons :    58
           Alpha electrons :    29
            Beta electrons :    29
          Charge           :     0
          Spin multiplicity:     1
          Use of symmetry is: on ; symmetry adaption is: on 
          Maximum number of iterations: ***
          This is a Direct SCF calculation.
          AO basis - number of functions:    79
                     number of shells:    43
          Convergence on energy requested:  1.00D-06
          Convergence on density requested:  1.00D-05
          Convergence on gradient requested:  5.00D-04

              XC Information
              --------------
                         B3LYP Method XC Potential
                     Hartree-Fock (Exact) Exchange  0.200          
                        Slater Exchange Functional  0.800 local    
                    Becke 1988 Exchange Functional  0.720 non-local
              Lee-Yang-Parr Correlation Functional  0.810          
                  VWN I RPA Correlation Functional  0.190 local    

             Grid Information
             ----------------
          Grid used for XC integration:  fine      
          Radial quadrature: Mura-Knowles        
          Angular quadrature: Lebedev. 
          Tag              B.-S. Rad. Rad. Pts. Rad. Cut. Ang. Pts.
          ---              ---------- --------- --------- ---------
          Cl                  1.00      123          10.0       770
          C                   0.70       70           8.0       590
          H                   0.35       60           9.0       590
          Grid pruning is: on 
          Number of quadrature shells:   253
          Spatial weights used:  Erf1

          Convergence Information
          -----------------------
          Convergence aids based upon iterative change in 
          total energy or number of iterations. 
          Levelshifting, if invoked, occurs when the 
          HOMO/LUMO gap drops below (HL_TOL):  1.00D-02
          DIIS, if invoked, will attempt to extrapolate 
          using up to (NFOCK): 10 stored Fock matrices.

                    Damping( 0%)  Levelshifting(0.5)       DIIS
                  --------------- ------------------- ---------------
          dE  on:    start            ASAP                start   
          dE off:    2 iters        *** iters           *** iters 


      Screening Tolerance Information
      -------------------------------
          Density screening/tol_rho:  1.00D-10
          AO Gaussian exp screening on grid/accAOfunc:  14
          CD Gaussian exp screening on grid/accCDfunc:  20
          XC Gaussian exp screening on grid/accXCfunc:  20
          Schwarz screening/accCoul:  1.00D-08

          Performing ZORA calculations
          ----------------------------


      Superposition of Atomic Density Guess
      -------------------------------------

 Sum of atomic energies:       -1416.59893258

 Read atomic ZORA corrections from ./ClC(Cl)Cl_mol_1_conformer_0.zora_sf

 Forcing recalculation of ZORA corrections
       Generating atomic ZORA corrections
       ----------------------------------

 In dft_scf:: zora:Knucl= F

 Grid_pts file          = ./ClC(Cl)Cl_mol_1_conformer_0.gridpts.00
 Record size in doubles =  12289        No. of grid_pts per rec  =   3070
 Max. records in memory =      3        Max. recs in file   =     13527


 Wrote atomic ZORA corrections to ./ClC(Cl)Cl_mol_1_conformer_0.zora_sf


 Loading old vectors from job with title :

Molecule conformer 0


      Symmetry analysis of molecular orbitals - initial
      -------------------------------------------------

  Numbering of irreducible representations: 

     1 a1          2 a2          3 e       

  Orbital symmetries:

     1 e           2 e           3 a1          4 a1          5 e       
     6 e           7 a1          8 a1          9 e          10 e       
    11 a2         12 e          13 e          14 e          15 e       
    16 a1         17 a1         18 e          19 e          20 a1      
    21 a1         22 e          23 e          24 e          25 e       
    26 e          27 e          28 a1         29 a2         30 a1      
    31 e          32 e          33 a1         34 e          35 e       
    36 a1         37 a1         38 e          39 e       

   Time after variat. SCF:     62.4
   Time prior to 1st pass:     62.4

           Memory utilization after 1st SCF pass: 
           Heap Space remaining (MW):      131.03           131031420
          Stack Space remaining (MW):      131.06           131058884

   convergence    iter        energy       DeltaE   RMS-Dens  Diis-err    time
 ---------------- ----- ----------------- --------- --------- ---------  ------
 d= 0,ls=0.0,diis     1  -1425.8019127071 -1.68D+03  1.27D-03  2.14D-03    64.8
 d= 0,ls=0.0,diis     2  -1425.8026026497 -6.90D-04  3.50D-04  3.39D-04    67.1
 d= 0,ls=0.0,diis     3  -1425.8025728491  2.98D-05  1.88D-04  6.21D-04    69.7
 d= 0,ls=0.0,diis     4  -1425.8026549428 -8.21D-05  1.90D-05  1.36D-06    72.0
 d= 0,ls=0.0,diis     5  -1425.8026551502 -2.07D-07  3.57D-06  4.48D-08    74.6
(nogshift,skip_gshiftAOev,done_Fji)=( 1,F,F)


         Total DFT energy =    -1425.802655150242
      One electron energy =    -2467.950451897198
           Coulomb energy =      880.220750261028
    Exchange-Corr. energy =      -90.820699616826
 Nuclear repulsion energy =      252.747746102754

       Scaling correction =        2.359572643995

 Numeric. integr. density =       58.000000362151

     Total iterative time =     12.3s



                  Occupations of the irreducible representations
                  ----------------------------------------------

                     irrep           alpha         beta
                     --------     --------     --------
                     a1                9.0          9.0
                     a2                2.0          2.0
                     e                18.0         18.0


 center of mass
 --------------
 x =  -0.00000000 y =  -0.00000000 z =   0.00288176

 moments of inertia (a.u.)
 ------------------
         599.427312502177          -0.000000000000           0.000000000000
          -0.000000000000         599.427312502177           0.000000000000
           0.000000000000           0.000000000000        1157.386495415464
 Line search: 
     step= 1.00 grad=-1.4D-03 hess= 6.5D-04 energy=  -1425.802655 mode=accept  
 new step= 1.00                   predicted energy=  -1425.802655
  no constraints, skipping    0.0000000000000000     
  no constraints, skipping    0.0000000000000000     
  no constraints, skipping    0.0000000000000000     
  no constraints, skipping    0.0000000000000000     
  no constraints, skipping    0.0000000000000000     
  no constraints, skipping    0.0000000000000000     
  no constraints, skipping    0.0000000000000000     
  no constraints, skipping    0.0000000000000000     

          --------
          Step   2
          --------


                         Geometry "geometry" -> "geometry"
                         ---------------------------------

 Output coordinates in angstroms (scale by  1.889725989 to convert to a.u.)

  No.       Tag          Charge          X              Y              Z
 ---- ---------------- ---------- -------------- -------------- --------------
    1 Cl                  17.0000    -0.45492028     1.69778560    -0.06902940
    2 C                    6.0000    -0.00000000    -0.00000000     0.48733076
    3 Cl                  17.0000     1.69778560    -0.45492028    -0.06902940
    4 Cl                  17.0000    -1.24286532    -1.24286532    -0.06902940
    5 H                    1.0000    -0.00000000    -0.00000000     1.56126539

      Atomic Mass 
      ----------- 

      Cl                34.968850
      C                 12.000000
      H                  1.007825


 Effective nuclear repulsion energy (a.u.)     252.7477461028

            Nuclear Dipole moment (a.u.) 
            ----------------------------
        X                 Y               Z
 ---------------- ---------------- ----------------
     0.0000000000     0.0000000000     1.8231138774

      Symmetry information
      --------------------

 Group name             C3v       
 Group number             17
 Group order               6
 No. of unique centers     3

      Symmetry unique atoms

     1    2    5


                                 NWChem DFT Module
                                 -----------------


                               Molecule conformer 0




 Summary of "ao basis" -> "ao basis" (spherical)
 ------------------------------------------------------------------------------
       Tag                 Description            Shells   Functions and Types
 ---------------- ------------------------------  ------  ---------------------
 Cl                          6-311G                 11       21   6s5p
 C                           6-311G                  7       13   4s3p
 H                           6-311G                  3        3   3s


      Symmetry analysis of basis
      --------------------------

        a1         26
        a2          5
        e          48


  The DFT is already converged 

         Total DFT energy =  -1425.802655150242


            General Information
            -------------------
          SCF calculation type: DFT
          Wavefunction type:  closed shell.
          No. of atoms     :     5
          No. of electrons :    58
           Alpha electrons :    29
            Beta electrons :    29
          Charge           :     0
          Spin multiplicity:     1
          Use of symmetry is: on ; symmetry adaption is: on 
          Maximum number of iterations: ***
          This is a Direct SCF calculation.
          AO basis - number of functions:    79
                     number of shells:    43
          Convergence on energy requested:  1.00D-06
          Convergence on density requested:  1.00D-05
          Convergence on gradient requested:  5.00D-04

              XC Information
              --------------
                         B3LYP Method XC Potential
                     Hartree-Fock (Exact) Exchange  0.200          
                        Slater Exchange Functional  0.800 local    
                    Becke 1988 Exchange Functional  0.720 non-local
              Lee-Yang-Parr Correlation Functional  0.810          
                  VWN I RPA Correlation Functional  0.190 local    

             Grid Information
             ----------------
          Grid used for XC integration:  fine      
          Radial quadrature: Mura-Knowles        
          Angular quadrature: Lebedev. 
          Tag              B.-S. Rad. Rad. Pts. Rad. Cut. Ang. Pts.
          ---              ---------- --------- --------- ---------
          Cl                  1.00      123          10.0       770
          C                   0.70       70           8.0       590
          H                   0.35       60           9.0       590
          Grid pruning is: on 
          Number of quadrature shells:   253
          Spatial weights used:  Erf1

          Convergence Information
          -----------------------
          Convergence aids based upon iterative change in 
          total energy or number of iterations. 
          Levelshifting, if invoked, occurs when the 
          HOMO/LUMO gap drops below (HL_TOL):  1.00D-02
          DIIS, if invoked, will attempt to extrapolate 
          using up to (NFOCK): 10 stored Fock matrices.

                    Damping( 0%)  Levelshifting(0.5)       DIIS
                  --------------- ------------------- ---------------
          dE  on:    start            ASAP                start   
          dE off:    2 iters        *** iters           *** iters 


      Screening Tolerance Information
      -------------------------------
          Density screening/tol_rho:  1.00D-10
          AO Gaussian exp screening on grid/accAOfunc:  14
          CD Gaussian exp screening on grid/accCDfunc:  20
          XC Gaussian exp screening on grid/accXCfunc:  20
          Schwarz screening/accCoul:  1.00D-08



                            NWChem DFT Gradient Module
                            --------------------------


                               Molecule conformer 0



  charge          =   0.00
  wavefunction    = closed shell

  Rotation of axis 
  Using symmetry


                         DFT ENERGY GRADIENTS

    atom               coordinates                        gradient
                 x          y          z           x          y          z
   1 Cl     -0.859675   3.208350  -0.130447    0.000283  -0.001055   0.000622
   2 C      -0.000000  -0.000000   0.920922    0.000000   0.000000   0.000008
   3 Cl      3.208350  -0.859675  -0.130447   -0.001055   0.000283   0.000622
   4 Cl     -2.348675  -2.348675  -0.130447    0.000773   0.000773   0.000622
   5 H      -0.000000  -0.000000   2.950364    0.000000   0.000000  -0.001873

                 ----------------------------------------
                 |  Time  |  1-e(secs)   |  2-e(secs)   |
                 ----------------------------------------
                 |  CPU   |       0.00   |       0.11   |
                 ----------------------------------------
                 |  WALL  |       0.00   |       0.11   |
                 ----------------------------------------
  no constraints, skipping    0.0000000000000000     

  Step       Energy      Delta E   Gmax     Grms     Xrms     Xmax   Walltime
  ---- ---------------- -------- -------- -------- -------- -------- --------
@    2   -1425.80265515 -7.6D-04  0.00187  0.00092  0.02519  0.05631     77.8
                                                                    



                                Z-matrix (autoz)
                                -------- 

 Units are Angstrom for bonds and degrees for angles

      Type          Name      I     J     K     L     M      Value     Gradient
      ----------- --------  ----- ----- ----- ----- ----- ---------- ----------
    1 Stretch                  1     2                       1.84363   -0.00123
    2 Stretch                  2     3                       1.84363   -0.00123
    3 Stretch                  2     4                       1.84363   -0.00123
    4 Stretch                  2     5                       1.07393   -0.00187
    5 Bend                     1     2     3               111.30903    0.00024
    6 Bend                     1     2     4               111.30903    0.00024
    7 Bend                     1     2     5               107.56422   -0.00026
    8 Bend                     3     2     4               111.30903    0.00024
    9 Bend                     3     2     5               107.56422   -0.00026
   10 Bend                     4     2     5               107.56422   -0.00026

  no constraints, skipping    0.0000000000000000     
  no constraints, skipping    0.0000000000000000     
  no constraints, skipping    0.0000000000000000     
  no constraints, skipping    0.0000000000000000     
  no constraints, skipping    0.0000000000000000     
  no constraints, skipping    0.0000000000000000     
  no constraints, skipping    0.0000000000000000     
  no constraints, skipping    0.0000000000000000     

                                 NWChem DFT Module
                                 -----------------


                               Molecule conformer 0




 Summary of "ao basis" -> "ao basis" (spherical)
 ------------------------------------------------------------------------------
       Tag                 Description            Shells   Functions and Types
 ---------------- ------------------------------  ------  ---------------------
 Cl                          6-311G                 11       21   6s5p
 C                           6-311G                  7       13   4s3p
 H                           6-311G                  3        3   3s


      Symmetry analysis of basis
      --------------------------

        a1         26
        a2          5
        e          48

  Caching 1-el integrals 
  Rotation of axis 

            General Information
            -------------------
          SCF calculation type: DFT
          Wavefunction type:  closed shell.
          No. of atoms     :     5
          No. of electrons :    58
           Alpha electrons :    29
            Beta electrons :    29
          Charge           :     0
          Spin multiplicity:     1
          Use of symmetry is: on ; symmetry adaption is: on 
          Maximum number of iterations: ***
          This is a Direct SCF calculation.
          AO basis - number of functions:    79
                     number of shells:    43
          Convergence on energy requested:  1.00D-06
          Convergence on density requested:  1.00D-05
          Convergence on gradient requested:  5.00D-04

              XC Information
              --------------
                         B3LYP Method XC Potential
                     Hartree-Fock (Exact) Exchange  0.200          
                        Slater Exchange Functional  0.800 local    
                    Becke 1988 Exchange Functional  0.720 non-local
              Lee-Yang-Parr Correlation Functional  0.810          
                  VWN I RPA Correlation Functional  0.190 local    

             Grid Information
             ----------------
          Grid used for XC integration:  fine      
          Radial quadrature: Mura-Knowles        
          Angular quadrature: Lebedev. 
          Tag              B.-S. Rad. Rad. Pts. Rad. Cut. Ang. Pts.
          ---              ---------- --------- --------- ---------
          Cl                  1.00      123          10.0       770
          C                   0.70       70           8.0       590
          H                   0.35       60           9.0       590
          Grid pruning is: on 
          Number of quadrature shells:   253
          Spatial weights used:  Erf1

          Convergence Information
          -----------------------
          Convergence aids based upon iterative change in 
          total energy or number of iterations. 
          Levelshifting, if invoked, occurs when the 
          HOMO/LUMO gap drops below (HL_TOL):  1.00D-02
          DIIS, if invoked, will attempt to extrapolate 
          using up to (NFOCK): 10 stored Fock matrices.

                    Damping( 0%)  Levelshifting(0.5)       DIIS
                  --------------- ------------------- ---------------
          dE  on:    start            ASAP                start   
          dE off:    2 iters        *** iters           *** iters 


      Screening Tolerance Information
      -------------------------------
          Density screening/tol_rho:  1.00D-10
          AO Gaussian exp screening on grid/accAOfunc:  14
          CD Gaussian exp screening on grid/accCDfunc:  20
          XC Gaussian exp screening on grid/accXCfunc:  20
          Schwarz screening/accCoul:  1.00D-08

          Performing ZORA calculations
          ----------------------------


      Superposition of Atomic Density Guess
      -------------------------------------

 Sum of atomic energies:       -1416.59893258

 Read atomic ZORA corrections from ./ClC(Cl)Cl_mol_1_conformer_0.zora_sf

 Forcing recalculation of ZORA corrections
       Generating atomic ZORA corrections
       ----------------------------------

 In dft_scf:: zora:Knucl= F

 Grid_pts file          = ./ClC(Cl)Cl_mol_1_conformer_0.gridpts.00
 Record size in doubles =  12289        No. of grid_pts per rec  =   3070
 Max. records in memory =      3        Max. recs in file   =     13527


 Wrote atomic ZORA corrections to ./ClC(Cl)Cl_mol_1_conformer_0.zora_sf


 Loading old vectors from job with title :

Molecule conformer 0


      Symmetry analysis of molecular orbitals - initial
      -------------------------------------------------

  Numbering of irreducible representations: 

     1 a1          2 a2          3 e       

  Orbital symmetries:

     1 e           2 e           3 a1          4 a1          5 e       
     6 e           7 a1          8 a1          9 e          10 e       
    11 a2         12 e          13 e          14 e          15 e       
    16 a1         17 a1         18 e          19 e          20 a1      
    21 a1         22 e          23 e          24 e          25 e       
    26 a1         27 e          28 e          29 a2         30 a1      
    31 e          32 e          33 a1         34 e          35 e       
    36 a1         37 a1         38 e          39 e       

   Time after variat. SCF:     83.7
   Time prior to 1st pass:     83.7

           Memory utilization after 1st SCF pass: 
           Heap Space remaining (MW):      131.03           131031420
          Stack Space remaining (MW):      131.06           131058884

   convergence    iter        energy       DeltaE   RMS-Dens  Diis-err    time
 ---------------- ----- ----------------- --------- --------- ---------  ------
 d= 0,ls=0.0,diis     1  -1425.8026601262 -1.68D+03  1.58D-04  5.63D-05    85.8
 d= 0,ls=0.0,diis     2  -1425.8026645778 -4.45D-06  7.92D-05  5.30D-05    88.5
 d= 0,ls=0.0,diis     3  -1425.8026700748 -5.50D-06  2.88D-05  1.33D-05    91.1
 d= 0,ls=0.0,diis     4  -1425.8026718098 -1.74D-06  2.90D-06  5.17D-08    93.7
 d= 0,ls=0.0,diis     5  -1425.8026718150 -5.19D-09  7.62D-07  3.71D-09    96.1
(nogshift,skip_gshiftAOev,done_Fji)=( 1,F,F)


         Total DFT energy =    -1425.802671815034
      One electron energy =    -2467.368108088187
           Coulomb energy =      879.930129476070
    Exchange-Corr. energy =      -90.816634280521
 Nuclear repulsion energy =      252.451941077604

       Scaling correction =        2.359572091654

 Numeric. integr. density =       58.000000433617

     Total iterative time =     12.5s



                  Occupations of the irreducible representations
                  ----------------------------------------------

                     irrep           alpha         beta
                     --------     --------     --------
                     a1                9.0          9.0
                     a2                2.0          2.0
                     e                18.0         18.0


 center of mass
 --------------
 x =   0.00000000 y =   0.00000000 z =  -0.00099903

 moments of inertia (a.u.)
 ------------------
         600.653797428859           0.000000000000           0.000000000000
           0.000000000000         600.653797428859           0.000000000000
           0.000000000000           0.000000000000        1159.226505141069
 Line search: 
     step= 1.00 grad=-3.7D-05 hess= 2.1D-05 energy=  -1425.802672 mode=accept  
 new step= 1.00                   predicted energy=  -1425.802672
  no constraints, skipping    0.0000000000000000     
  no constraints, skipping    0.0000000000000000     
  no constraints, skipping    0.0000000000000000     
  no constraints, skipping    0.0000000000000000     
  no constraints, skipping    0.0000000000000000     
  no constraints, skipping    0.0000000000000000     
  no constraints, skipping    0.0000000000000000     
  no constraints, skipping    0.0000000000000000     

          --------
          Step   3
          --------


                         Geometry "geometry" -> "geometry"
                         ---------------------------------

 Output coordinates in angstroms (scale by  1.889725989 to convert to a.u.)

  No.       Tag          Charge          X              Y              Z
 ---- ---------------- ---------- -------------- -------------- --------------
    1 Cl                  17.0000    -0.45528175     1.69913463    -0.07167642
    2 C                    6.0000     0.00000000     0.00000000     0.48983563
    3 Cl                  17.0000     1.69913463    -0.45528175    -0.07167642
    4 Cl                  17.0000    -1.24385288    -1.24385288    -0.07167642
    5 H                    1.0000     0.00000000     0.00000000     1.56670157

      Atomic Mass 
      ----------- 

      Cl                34.968850
      C                 12.000000
      H                  1.007825


 Effective nuclear repulsion energy (a.u.)     252.4519410776

            Nuclear Dipole moment (a.u.) 
            ----------------------------
        X                 Y               Z
 ---------------- ---------------- ----------------
     0.0000000000     0.0000000000     1.6066789303

      Symmetry information
      --------------------

 Group name             C3v       
 Group number             17
 Group order               6
 No. of unique centers     3

      Symmetry unique atoms

     1    2    5


                                 NWChem DFT Module
                                 -----------------


                               Molecule conformer 0




 Summary of "ao basis" -> "ao basis" (spherical)
 ------------------------------------------------------------------------------
       Tag                 Description            Shells   Functions and Types
 ---------------- ------------------------------  ------  ---------------------
 Cl                          6-311G                 11       21   6s5p
 C                           6-311G                  7       13   4s3p
 H                           6-311G                  3        3   3s


      Symmetry analysis of basis
      --------------------------

        a1         26
        a2          5
        e          48


  The DFT is already converged 

         Total DFT energy =  -1425.802671815034


            General Information
            -------------------
          SCF calculation type: DFT
          Wavefunction type:  closed shell.
          No. of atoms     :     5
          No. of electrons :    58
           Alpha electrons :    29
            Beta electrons :    29
          Charge           :     0
          Spin multiplicity:     1
          Use of symmetry is: on ; symmetry adaption is: on 
          Maximum number of iterations: ***
          This is a Direct SCF calculation.
          AO basis - number of functions:    79
                     number of shells:    43
          Convergence on energy requested:  1.00D-06
          Convergence on density requested:  1.00D-05
          Convergence on gradient requested:  5.00D-04

              XC Information
              --------------
                         B3LYP Method XC Potential
                     Hartree-Fock (Exact) Exchange  0.200          
                        Slater Exchange Functional  0.800 local    
                    Becke 1988 Exchange Functional  0.720 non-local
              Lee-Yang-Parr Correlation Functional  0.810          
                  VWN I RPA Correlation Functional  0.190 local    

             Grid Information
             ----------------
          Grid used for XC integration:  fine      
          Radial quadrature: Mura-Knowles        
          Angular quadrature: Lebedev. 
          Tag              B.-S. Rad. Rad. Pts. Rad. Cut. Ang. Pts.
          ---              ---------- --------- --------- ---------
          Cl                  1.00      123          10.0       770
          C                   0.70       70           8.0       590
          H                   0.35       60           9.0       590
          Grid pruning is: on 
          Number of quadrature shells:   253
          Spatial weights used:  Erf1

          Convergence Information
          -----------------------
          Convergence aids based upon iterative change in 
          total energy or number of iterations. 
          Levelshifting, if invoked, occurs when the 
          HOMO/LUMO gap drops below (HL_TOL):  1.00D-02
          DIIS, if invoked, will attempt to extrapolate 
          using up to (NFOCK): 10 stored Fock matrices.

                    Damping( 0%)  Levelshifting(0.5)       DIIS
                  --------------- ------------------- ---------------
          dE  on:    start            ASAP                start   
          dE off:    2 iters        *** iters           *** iters 


      Screening Tolerance Information
      -------------------------------
          Density screening/tol_rho:  1.00D-10
          AO Gaussian exp screening on grid/accAOfunc:  14
          CD Gaussian exp screening on grid/accCDfunc:  20
          XC Gaussian exp screening on grid/accXCfunc:  20
          Schwarz screening/accCoul:  1.00D-08



                            NWChem DFT Gradient Module
                            --------------------------


                               Molecule conformer 0



  charge          =   0.00
  wavefunction    = closed shell

  Rotation of axis 
  Using symmetry


                         DFT ENERGY GRADIENTS

    atom               coordinates                        gradient
                 x          y          z           x          y          z
   1 Cl     -0.860358   3.210899  -0.135449    0.000043  -0.000161   0.000038
   2 C       0.000000   0.000000   0.925655    0.000000   0.000000  -0.000277
   3 Cl      3.210899  -0.860358  -0.135449   -0.000161   0.000043   0.000038
   4 Cl     -2.350541  -2.350541  -0.135449    0.000118   0.000118   0.000038
   5 H       0.000000   0.000000   2.960637    0.000000   0.000000   0.000162

                 ----------------------------------------
                 |  Time  |  1-e(secs)   |  2-e(secs)   |
                 ----------------------------------------
                 |  CPU   |       0.00   |       0.11   |
                 ----------------------------------------
                 |  WALL  |       0.00   |       0.11   |
                 ----------------------------------------
  no constraints, skipping    0.0000000000000000     

  Step       Energy      Delta E   Gmax     Grms     Xrms     Xmax   Walltime
  ---- ---------------- -------- -------- -------- -------- -------- --------
@    3   -1425.80267182 -1.7D-05  0.00017  0.00011  0.00386  0.01027     98.9
                                     ok       ok                    



                                Z-matrix (autoz)
                                -------- 

 Units are Angstrom for bonds and degrees for angles

      Type          Name      I     J     K     L     M      Value     Gradient
      ----------- --------  ----- ----- ----- ----- ----- ---------- ----------
    1 Stretch                  1     2                       1.84652   -0.00017
    2 Stretch                  2     3                       1.84652   -0.00017
    3 Stretch                  2     4                       1.84652   -0.00017
    4 Stretch                  2     5                       1.07687    0.00016
    5 Bend                     1     2     3               111.17956   -0.00001
    6 Bend                     1     2     4               111.17956   -0.00001
    7 Bend                     1     2     5               107.70355    0.00001
    8 Bend                     3     2     4               111.17956   -0.00001
    9 Bend                     3     2     5               107.70355    0.00001
   10 Bend                     4     2     5               107.70355    0.00001

  no constraints, skipping    0.0000000000000000     
  no constraints, skipping    0.0000000000000000     
  no constraints, skipping    0.0000000000000000     

                                 NWChem DFT Module
                                 -----------------


                               Molecule conformer 0




 Summary of "ao basis" -> "ao basis" (spherical)
 ------------------------------------------------------------------------------
       Tag                 Description            Shells   Functions and Types
 ---------------- ------------------------------  ------  ---------------------
 Cl                          6-311G                 11       21   6s5p
 C                           6-311G                  7       13   4s3p
 H                           6-311G                  3        3   3s


      Symmetry analysis of basis
      --------------------------

        a1         26
        a2          5
        e          48

  Caching 1-el integrals 
  Rotation of axis 

            General Information
            -------------------
          SCF calculation type: DFT
          Wavefunction type:  closed shell.
          No. of atoms     :     5
          No. of electrons :    58
           Alpha electrons :    29
            Beta electrons :    29
          Charge           :     0
          Spin multiplicity:     1
          Use of symmetry is: on ; symmetry adaption is: on 
          Maximum number of iterations: ***
          This is a Direct SCF calculation.
          AO basis - number of functions:    79
                     number of shells:    43
          Convergence on energy requested:  1.00D-06
          Convergence on density requested:  1.00D-05
          Convergence on gradient requested:  5.00D-04

              XC Information
              --------------
                         B3LYP Method XC Potential
                     Hartree-Fock (Exact) Exchange  0.200          
                        Slater Exchange Functional  0.800 local    
                    Becke 1988 Exchange Functional  0.720 non-local
              Lee-Yang-Parr Correlation Functional  0.810          
[...]
 -lineq- algorithm             =   0
 -bem- low  level              =   2
 -bem- from -octahedral-
 gaussian surface charge width =   0.98000
 degree of switching           =   1.00000
 switching function tolerance  =   0.00010
 atomic radii = 
 --------------
    1 17.000  2.050
    2  6.000  2.000
    3 17.000  2.050
    4 17.000  2.050
    5  1.000  1.300

 solvent accessible surface
 --------------------------

 ---------- ATOMIC COORDINATES (A.U.) ------------ VDWR(ANG.) --
     1   -0.86054201    3.21158650   -0.13546995     2.050
     2   -0.00000000    0.00000000    0.92591742     2.000
     3    3.21158650   -0.86054201   -0.13546995     2.050
     4   -2.35104449   -2.35104449   -0.13546995     2.050
     5    0.00000000   -0.00000000    2.96043785     1.300
 number of segments per atom =         32
 number of   points per atom =         32
 atom (   nspa,  nppa )
 ----------------------
    1 (     24,     0 )       0
    2 (      6,     0 )       0
    3 (     24,     0 )       0
    4 (     21,     0 )       0
    5 (     16,     0 )       0
 number of -cosmo- surface points =       91
 molecular surface =    115.450 angstrom**2
 molecular volume  =     77.400 angstrom**3
 G(cav/disp)       =      1.437 kcal/mol
 ...... end of -cosmo- initialization ......


  Caching 1-el integrals 
  itol2e modified to match energy
  convergence criterion.

            General Information
            -------------------
          SCF calculation type: DFT
          Wavefunction type:  closed shell.
          No. of atoms     :     5
          No. of electrons :    58
           Alpha electrons :    29
            Beta electrons :    29
          Charge           :     0
          Spin multiplicity:     1
          Use of symmetry is: off; symmetry adaption is: off
          Maximum number of iterations: ***
          This is a Direct SCF calculation.
          AO basis - number of functions:    79
                     number of shells:    43
          Convergence on energy requested:  1.00D-07
          Convergence on density requested:  1.00D-05
          Convergence on gradient requested:  5.00D-04

              XC Information
              --------------
                         B3LYP Method XC Potential
                     Hartree-Fock (Exact) Exchange  0.200          
                        Slater Exchange Functional  0.800 local    
                    Becke 1988 Exchange Functional  0.720 non-local
              Lee-Yang-Parr Correlation Functional  0.810          
                  VWN I RPA Correlation Functional  0.190 local    

             Grid Information
             ----------------
          Grid used for XC integration:  fine      
          Radial quadrature: Mura-Knowles        
          Angular quadrature: Lebedev. 
          Tag              B.-S. Rad. Rad. Pts. Rad. Cut. Ang. Pts.
          ---              ---------- --------- --------- ---------
          Cl                  1.00      123          10.0       770
          C                   0.70       70           8.0       590
          H                   0.35       60           9.0       590
          Grid pruning is: on 
          Number of quadrature shells:   499
          Spatial weights used:  Erf1

          Convergence Information
          -----------------------
          Convergence aids based upon iterative change in 
          total energy or number of iterations. 
          Levelshifting, if invoked, occurs when the 
          HOMO/LUMO gap drops below (HL_TOL):  1.00D-02
          DIIS, if invoked, will attempt to extrapolate 
          using up to (NFOCK): 10 stored Fock matrices.

                    Damping( 0%)  Levelshifting(0.5)       DIIS
                  --------------- ------------------- ---------------
          dE  on:    start            ASAP                start   
          dE off:    2 iters        *** iters           *** iters 


      Screening Tolerance Information
      -------------------------------
          Density screening/tol_rho:  1.00D-11
          AO Gaussian exp screening on grid/accAOfunc:  16
          CD Gaussian exp screening on grid/accCDfunc:  20
          XC Gaussian exp screening on grid/accXCfunc:  20
          Schwarz screening/accCoul:  1.00D-08

          Performing ZORA calculations
          ----------------------------


      Superposition of Atomic Density Guess
      -------------------------------------

 Sum of atomic energies:       -1416.59893258

 Read atomic ZORA corrections from ./ClC(Cl)Cl_mol_1_conformer_0.zora_sf


 Loading old vectors from job with title :

Molecule conformer 0

   Time after variat. SCF:    591.7
   Time prior to 1st pass:    591.7

 Grid_pts file          = ./ClC(Cl)Cl_mol_1_conformer_0.gridpts.00
 Record size in doubles =  12289        No. of grid_pts per rec  =   3070
 Max. records in memory =      5        Max. recs in file   =     13527


           Memory utilization after 1st SCF pass: 
           Heap Space remaining (MW):      131.01           131006508
          Stack Space remaining (MW):      131.07           131071396

   convergence    iter        energy       DeltaE   RMS-Dens  Diis-err    time
 ---------------- ----- ----------------- --------- --------- ---------  ------
     COSMO gas phase
 d= 0,ls=0.0,diis     1  -1425.8026708277 -1.68D+03  4.03D-03  2.22D+02   594.9
 d= 0,ls=0.0,diis     2  -1426.0034960817 -2.01D-01  2.03D-03  1.54D-01   597.7
 d= 0,ls=0.0,diis     3  -1426.0034548977  4.12D-05  1.68D-03  1.52D-02   600.0
 d= 0,ls=0.0,diis     4  -1426.0047055227 -1.25D-03  5.86D-04  2.30D-03   603.0
 d= 0,ls=0.0,diis     5  -1426.0050421378 -3.37D-04  3.53D-05  6.16D-06   605.8
 d= 0,ls=0.0,diis     6  -1426.0050429769 -8.39D-07  8.93D-06  1.44D-06   608.7
 d= 0,ls=0.0,diis     7  -1426.0050431665 -1.90D-07  6.89D-07  1.77D-09   611.4
 d= 0,ls=0.0,diis     8  -1426.0050431669 -3.07D-10  1.09D-07  7.74D-11   614.2

           Memory utilization after 1st SCF pass: 
           Heap Space remaining (MW):      131.01           131006140
          Stack Space remaining (MW):      131.07           131071396

   convergence    iter        energy       DeltaE   RMS-Dens  Diis-err    time
 ---------------- ----- ----------------- --------- --------- ---------  ------
     COSMO solvation phase
 d= 0,ls=0.0,diis     1  -1426.0093284789 -4.29D-03  1.52D-03  1.72D-03   617.4
 d= 0,ls=0.0,diis     2  -1426.0098388880 -5.10D-04  3.89D-04  7.29D-04   620.1
 d= 0,ls=0.0,diis     3  -1426.0098715823 -3.27D-05  1.64D-04  5.95D-04   623.7
 d= 0,ls=0.0,diis     4  -1426.0099462824 -7.47D-05  2.27D-05  1.10D-06   627.0
 d= 0,ls=0.0,diis     5  -1426.0099464295 -1.47D-07  6.24D-06  3.55D-07   630.2
 d= 0,ls=0.0,diis     6  -1426.0099464697 -4.03D-08  1.07D-06  4.51D-09   633.6

      Commencing ZORA Property Calculations
      -------------------------------------

dia1(k,t,iat1,ispin)=(  1,  1,  5,  1)=(    17.68164494,    17.68164494) ppm
dia1(k,t,iat1,ispin)=(  1,  2,  5,  1)=(    -0.01652177,    -0.01652177) ppm
dia1(k,t,iat1,ispin)=(  1,  3,  5,  1)=(    -0.01755370,    -0.01755370) ppm
dia1(k,t,iat1,ispin)=(  2,  1,  5,  1)=(    -0.01652164,    -0.01652164) ppm
dia1(k,t,iat1,ispin)=(  2,  2,  5,  1)=(    17.68159630,    17.68159630) ppm
dia1(k,t,iat1,ispin)=(  2,  3,  5,  1)=(    -0.01755117,    -0.01755117) ppm
dia1(k,t,iat1,ispin)=(  3,  1,  5,  1)=(    -0.02117794,    -0.02117794) ppm
dia1(k,t,iat1,ispin)=(  3,  2,  5,  1)=(    -0.02115969,    -0.02115969) ppm
dia1(k,t,iat1,ispin)=(  3,  3,  5,  1)=(    42.46157077,    42.46157077) ppm
(dia2,par1)(k,t,iat1,spin)=(  1,  1,  5,  1)=(     5.41332589,     5.41332589,     0.87939153,     0.87939153) ppm
(dia2,par1)(k,t,iat1,spin)=(  2,  1,  5,  1)=(     0.00251121,     0.00251121,     0.00711067,     0.00711067) ppm
(dia2,par1)(k,t,iat1,spin)=(  3,  1,  5,  1)=(     0.00416128,     0.00416128,     0.00813898,     0.00813898) ppm
(dia2,par1)(k,t,iat1,spin)=(  1,  2,  5,  1)=(     0.00251136,     0.00251136,     0.00711026,     0.00711026) ppm
(dia2,par1)(k,t,iat1,spin)=(  2,  2,  5,  1)=(     5.41334700,     5.41334700,     0.87938910,     0.87938910) ppm
(dia2,par1)(k,t,iat1,spin)=(  3,  2,  5,  1)=(     0.00414252,     0.00414252,     0.00809201,     0.00809201) ppm
(dia2,par1)(k,t,iat1,spin)=(  1,  3,  5,  1)=(    -0.00355282,    -0.00355282,     0.00650838,     0.00650838) ppm
(dia2,par1)(k,t,iat1,spin)=(  2,  3,  5,  1)=(    -0.00357515,    -0.00357515,     0.00651850,     0.00651850) ppm
(dia2,par1)(k,t,iat1,spin)=(  3,  3,  5,  1)=(    -2.47916979,    -2.47916979,     2.73187023,     2.73187023) ppm

 Wrote ZORA NMR data to ./ClC(Cl)Cl_mol_1_conformer_0.zora_nmrcs

(nogshift,skip_gshiftAOev,done_Fji)=( 1,F,T)


         Total DFT energy =    -1426.009946469747
      One electron energy =    -2467.383006908787
           Coulomb energy =      879.898017093698
    Exchange-Corr. energy =      -90.829132082597
 Nuclear repulsion energy =      252.400174327296

             COSMO energy =       -0.095998899357

       Scaling correction =        2.473464951631

 Numeric. integr. density =       58.000000498748

     Total iterative time =     47.8s


                                   COSMO solvation results
                                   -----------------------

                 gas phase energy =     -1426.005043166856
                 sol phase energy =     -1426.009946469747
 (electrostatic) solvation energy =         0.004903302891 (    3.08 kcal/mol)

 center of mass
 --------------
 x =   0.00000000 y =   0.00000000 z =  -0.00099286

 moments of inertia (a.u.)
 ------------------
         600.907323396497           0.000000000000           0.000000000000
           0.000000000000         600.907323396497           0.000000000000
           0.000000000000           0.000000000000        1159.723069075947

            Scalar ZORA NMR Shielding
            -------------------------


          -----------------------------------------
          Chemical Shielding Tensors (GIAO, in ppm)
          -----------------------------------------


 Read ZORA NMR data from ./ClC(Cl)Cl_mol_1_conformer_0.zora_nmrcs

    0 giaofock schwarz done =      69.92%
    0 giaofock schwarz done =      72.75%
                                NWChem CPHF Module
                                ------------------



 solvent parameters
 solvname_short: cdcl3   
 solvname_long:  unknown                            
 dielec:       78.4000
 dielecinf:     1.7769

          ---------------
          -cosmo- solvent
          ---------------
 Cosmo: York-Karplus, doi: 10.1021/jp992097l
 dielectric constant -eps-     =  78.40
 screen = (eps-1)/(eps    )    =   0.98724
 surface charge correction     = lagrangian
 -lineq- algorithm             =   0
 -bem- low  level              =   2
 -bem- from -octahedral-
 gaussian surface charge width =   0.98000
 degree of switching           =   1.00000
 switching function tolerance  =   0.00010
 atomic radii = 
 --------------
    1 17.000  2.050
    2  6.000  2.000
    3 17.000  2.050
    4 17.000  2.050
    5  1.000  1.300

 solvent accessible surface
 --------------------------

 ---------- ATOMIC COORDINATES (A.U.) ------------ VDWR(ANG.) --
     1   -0.86054201    3.21158650   -0.13546995     2.050
     2   -0.00000000    0.00000000    0.92591742     2.000
     3    3.21158650   -0.86054201   -0.13546995     2.050
     4   -2.35104449   -2.35104449   -0.13546995     2.050
     5    0.00000000   -0.00000000    2.96043785     1.300
 number of segments per atom =         32
 number of   points per atom =         32
 atom (   nspa,  nppa )
 ----------------------
    1 (     24,     0 )       0
    2 (      6,     0 )       0
    3 (     24,     0 )       0
    4 (     21,     0 )       0
    5 (     16,     0 )       0
 number of -cosmo- surface points =       91
 molecular surface =    115.450 angstrom**2
 molecular volume  =     77.400 angstrom**3
 G(cav/disp)       =      1.437 kcal/mol
 ...... end of -cosmo- initialization ......


  scftype          =     RHF 
  nclosed          =       29
  nopen            =        0
  variables        =     1450
  # of vectors     =        3
  tolerance        = 0.10D-03
  level shift      = 0.00D+00
  max iterations   =       50
  max subspace     =       30

 SCF residual:    6.0347458055741093E-005


Iterative solution of linear equations
  No. of variables     1450
  No. of equations        3
  Maximum subspace       30
        Iterations       50
       Convergence  1.0D-04
        Start time    649.3


   iter   nsub   residual    time
   ----  ------  --------  ---------
     1      3    5.99D-01     652.5
     2      6    2.03D-02     655.6
     3      9    1.27D-03     658.8
     4     12    4.07D-05     662.1

 Wrote CPHF data to ./ClC(Cl)Cl_mol_1_conformer_0.shieldcphf

 Calc. par tensor-> zora
      Atom:    1  H 
        Diamagnetic
     23.0950     -0.0140     -0.0191
     -0.0140     23.0949     -0.0191
     -0.0191     -0.0191     39.9824

        Paramagnetic
      0.9660     -0.0028      0.0078
     -0.0028      0.9660      0.0078
      0.0078      0.0078    -12.8712

        Total Shielding Tensor
     24.0610     -0.0168     -0.0112
     -0.0168     24.0609     -0.0113
     -0.0112     -0.0113     27.1112

           isotropic =      25.0777
          anisotropy =       3.0504

          Principal Components and Axis System
                 1           2           3
               27.1113     24.0778     24.0440

      1        -0.0037      0.7076      0.7066
      2        -0.0037     -0.7066      0.7076
      3         1.0000     -0.0000      0.0052




 Task  times  cpu:       71.3s     wall:       72.6s


                                NWChem Input Module
                                -------------------


 Summary of allocated global arrays
-----------------------------------
  array 0 => double precision sf 1(79,79),  handle: -987 
  array 1 => double precision sf 1(79,79),  handle: -986 
  array 2 => double precision sf 1(79,79),  handle: -985 
  array 3 => double precision sf 1(79,79),  handle: -984 
  array 4 => double precision sf 1(79,79),  handle: -983 
  array 5 => double precision sf 1(79,79),  handle: -982 
  array 6 => double precision sf 1(79,79),  handle: -981 
  array 7 => double precision sf 1(79,79),  handle: -980 
  array 8 => double precision sf 1(79,79),  handle: -979 
  array 9 => double precision sf 1(79,79),  handle: -978 
  array 10 => double precision sf 1(79,79),  handle: -977 
  array 11 => double precision sf 1(79,79),  handle: -976 
  array 12 => double precision sf 1(79,79),  handle: -975 
  array 13 => double precision sf 1(79,79),  handle: -974 
  array 14 => double precision sf 1(79,79),  handle: -973 
  array 15 => double precision sf 1(79,79),  handle: -972 
  array 16 => double precision sf 1(79,79),  handle: -971 
  array 17 => double precision sf 1(79,79),  handle: -970 
  array 18 => double precision sf 1(79,79),  handle: -969 
  array 19 => double precision sf 1(79,79),  handle: -968 
  array 20 => double precision sf 1(79,79),  handle: -967 
  array 21 => double precision sf 1(79,79),  handle: -966 
  array 22 => double precision sf 1(79,79),  handle: -965 
  array 23 => double precision sf 1(79,79),  handle: -964 



                         GA Statistics for process    0
                         ------------------------------

       create   destroy   get      put      acc     scatter   gather  read&inc
calls: 4765     4551     1.51e+05 3.88e+04 4.01e+04   60        0     5267     
number of processes/call 0.00e+00 0.00e+00 0.00e+00 0.00e+00 0.00e+00
bytes total:             2.98e+08 3.85e+07 2.08e+08 5.92e+02 0.00e+00 4.21e+04
bytes remote:            2.46e+08 2.74e+07 1.79e+08 -2.96e+02 0.00e+00 0.00e+00
Max memory consumed for GA by this process: 722032 bytes

MA_summarize_allocated_blocks: starting scan ...
MA_summarize_allocated_blocks: scan completed: 0 heap blocks, 0 stack blocks
MA usage statistics:

	allocation statistics:
					      heap	     stack
					      ----	     -----
	current number of blocks	         0	         0
	maximum number of blocks	        66	        59
	current total bytes		         0	         0
	maximum total bytes		   2379776	  22613800
	maximum total K-bytes		      2380	     22614
	maximum total M-bytes		         3	        23


                                     CITATION
                                     --------
                Please cite the following reference when publishing
                           results obtained with NWChem:

          E. Apr, E. J. Bylaska, W. A. de Jong, N. Govind, K. Kowalski,
       T. P. Straatsma, M. Valiev, H. J. J. van Dam, Y. Alexeev, J. Anchell,
       V. Anisimov, F. W. Aquino, R. Atta-Fynn, J. Autschbach, N. P. Bauman,
     J. C. Becca, D. E. Bernholdt, K. Bhaskaran-Nair, S. Bogatko, P. Borowski,
        J. Boschen, J. Brabec, A. Bruner, E. Caut, Y. Chen, G. N. Chuev,
      C. J. Cramer, J. Daily, M. J. O. Deegan, T. H. Dunning Jr., M. Dupuis,
   K. G. Dyall, G. I. Fann, S. A. Fischer, A. Fonari, H. Frchtl, L. Gagliardi,
      J. Garza, N. Gawande, S. Ghosh, K. Glaesemann, A. W. Gtz, J. Hammond,
       V. Helms, E. D. Hermes, K. Hirao, S. Hirata, M. Jacquelin, L. Jensen,
   B. G. Johnson, H. Jnsson, R. A. Kendall, M. Klemm, R. Kobayashi, V. Konkov,
      S. Krishnamoorthy, M. Krishnan, Z. Lin, R. D. Lins, R. J. Littlefield,
      A. J. Logsdail, K. Lopata, W. Ma, A. V. Marenich, J. Martin del Campo,
   D. Mejia-Rodriguez, J. E. Moore, J. M. Mullin, T. Nakajima, D. R. Nascimento,
    J. A. Nichols, P. J. Nichols, J. Nieplocha, A. Otero-de-la-Roza, B. Palmer,
    A. Panyala, T. Pirojsirikul, B. Peng, R. Peverati, J. Pittner, L. Pollack,
   R. M. Richard, P. Sadayappan, G. C. Schatz, W. A. Shelton, D. W. Silverstein,
   D. M. A. Smith, T. A. Soares, D. Song, M. Swart, H. L. Taylor, G. S. Thomas,
            V. Tipparaju, D. G. Truhlar, K. Tsemekhman, T. Van Voorhis,
     . Vzquez-Mayagoitia, P. Verma, O. Villa, A. Vishnu, K. D. Vogiatzis,
        D. Wang, J. H. Weare, M. J. Williamson, T. L. Windus, K. Woliski,
        A. T. Wong, Q. Wu, C. Yang, Q. Yu, M. Zacharias, Z. Zhang, Y. Zhao,
                                and R. J. Harrison
                        "NWChem: Past, present, and future
                         J. Chem. Phys. 152, 184102 (2020)
                               doi:10.1063/5.0004997

                                      AUTHORS
                                      -------
     E. Apra, E. J. Bylaska, N. Govind, K. Kowalski, M. Valiev, W. A. de Jong,
      T. P. Straatsma, H. J. J. van Dam, D. Wang, T. L. Windus, N. P. Bauman,
       A. Panyala, J. Hammond, J. Autschbach, K. Bhaskaran-Nair, J. Brabec,
    K. Lopata, S. A. Fischer, S. Krishnamoorthy, M. Jacquelin, W. Ma, M. Klemm,
       O. Villa, Y. Chen, V. Anisimov, F. Aquino, S. Hirata, M. T. Hackler,
           Eric Hermes, L. Jensen, J. E. Moore, J. C. Becca, V. Konjkov,
            D. Mejia-Rodriguez, T. Risthaus, M. Malagoli, A. Marenich,
   A. Otero-de-la-Roza, J. Mullin, P. Nichols, R. Peverati, J. Pittner, Y. Zhao,
        P.-D. Fan, A. Fonari, M. J. Williamson, R. J. Harrison, J. R. Rehr,
      M. Dupuis, D. Silverstein, D. M. A. Smith, J. Nieplocha, V. Tipparaju,
      M. Krishnan, B. E. Van Kuiken, A. Vazquez-Mayagoitia, M. Swart, Q. Wu,
   T. Van Voorhis, A. A. Auer, M. Nooijen, L. D. Crosby, E. Brown, G. Cisneros,
     G. I. Fann, H. Fruchtl, J. Garza, K. Hirao, R. A. Kendall, J. A. Nichols,
       K. Tsemekhman, K. Wolinski, J. Anchell, D. E. Bernholdt, P. Borowski,
       T. Clark, D. Clerc, H. Dachsel, M. J. O. Deegan, K. Dyall, D. Elwood,
      E. Glendening, M. Gutowski, A. C. Hess, J. Jaffe, B. G. Johnson, J. Ju,
        R. Kobayashi, R. Kutteh, Z. Lin, R. Littlefield, X. Long, B. Meng,
      T. Nakajima, S. Niu, L. Pollack, M. Rosing, K. Glaesemann, G. Sandrone,
      M. Stave, H. Taylor, G. Thomas, J. H. van Lenthe, A. T. Wong, Z. Zhang.

 Total times  cpu:      663.1s     wall:      662.2s
