 argument  1 = CC(=C)Cl_mol_2_conformer_0.nw



============================== echo of input deck ==============================
start

title "Molecule conformer 0"

memory total 4000 mb

echo
geometry units angstroms
   C     -1.0979    -0.1753    -0.2455
   C      0.2578     0.4414    -0.0735
   C      1.2687    -0.2672     0.4377
   Cl     0.5217     2.1144    -0.5492
   H     -1.0312    -1.0505    -0.9258
   H     -1.4908    -0.5045     0.7396
   H     -1.8046     0.5612    -0.6820
   H      1.1274    -1.3014     0.7378
   H      2.2490     0.1820     0.5610
end


basis spherical
* library 6-311G
end

driver
  maxiter 500
  xyz final
end

relativistic
  zora on
  zora:cutoff_NMR 1d-8
  zora:cutoff 1d-30
end

dft
  direct
  grid fine
  xc B3LYP
  mult 1
  maxiter 1500
  noprint "final vectors analysis" multipole
end

task dft optimize

task dft freq

property
  shielding 5 5 6 7 8 9
end

cosmo
   solvent cdcl3
end

task dft property
================================================================================


                                         
                                         


             Northwest Computational Chemistry Package (NWChem) 7.0.2
             --------------------------------------------------------


                    Environmental Molecular Sciences Laboratory
                       Pacific Northwest National Laboratory
                                Richland, WA 99352

                              Copyright (c) 1994-2020
                       Pacific Northwest National Laboratory
                            Battelle Memorial Institute

             NWChem is an open-source computational chemistry package
                        distributed under the terms of the
                      Educational Community License (ECL) 2.0
             A copy of the license is included with this distribution
                              in the LICENSE.TXT file

                                  ACKNOWLEDGMENT
                                  --------------

            This software and its documentation were developed at the
            EMSL at Pacific Northwest National Laboratory, a multiprogram
            national laboratory, operated for the U.S. Department of Energy
            by Battelle under Contract Number DE-AC05-76RL01830. Support
            for this work was provided by the Department of Energy Office
            of Biological and Environmental Research, Office of Basic
            Energy Sciences, and the Office of Advanced Scientific Computing.


           Job information
           ---------------

    hostname        = ponder
    program         = nwchem
    date            = Tue Aug  6 11:37:17 2024

    compiled        = Sat_Apr_09_17:12:10_2022
    source          = /build/nwchem-f1f4gx/nwchem-7.0.2/build-openmpi
    nwchem branch   = 7.0.2
    nwchem revision = N/A
    ga revision     = 5.8.1
    use scalapack   = T
    input           = CC(=C)Cl_mol_2_conformer_0.nw
    prefix          = CC(=C)Cl_mol_2_conformer_0.
    data base       = ./CC(=C)Cl_mol_2_conformer_0.db
    status          = startup
    nproc           =       40
    time left       =     -1s



           Memory information
           ------------------

    heap     =  131071994 doubles =   1000.0 Mbytes
    stack    =  131071999 doubles =   1000.0 Mbytes
    global   =  262144000 doubles =   2000.0 Mbytes (distinct from heap & stack)
    total    =  524287993 doubles =   4000.0 Mbytes
    verify   = yes
    hardfail = no 


           Directory information
           ---------------------

  0 permanent = .
  0 scratch   = .




                                NWChem Input Module
                                -------------------


                               Molecule conformer 0
                               --------------------

 Scaling coordinates for geometry "geometry" by  1.889725989
 (inverse scale =  0.529177249)

 CS  symmetry detected

          ------
          auto-z
          ------
  no constraints, skipping    0.0000000000000000     
  no constraints, skipping    0.0000000000000000     


                             Geometry "geometry" -> ""
                             -------------------------

 Output coordinates in angstroms (scale by  1.889725989 to convert to a.u.)

  No.       Tag          Charge          X              Y              Z
 ---- ---------------- ---------- -------------- -------------- --------------
    1 C                    6.0000    -1.11604660    -1.28390401     0.00000000
    2 C                    6.0000     0.10376501    -0.41219017     0.00000000
    3 C                    6.0000     1.32636247    -0.95127611     0.00000000
    4 Cl                  17.0000    -0.07488746     1.33793725     0.00000000
    5 H                    1.0000    -1.12133274    -1.92612224    -0.90593947
    6 H                    1.0000    -1.12133274    -1.92612224     0.90593947
    7 H                    1.0000    -2.03537056    -0.66162364     0.00000000
    8 H                    1.0000     1.45911112    -2.02922468     0.00000000
    9 H                    1.0000     2.20752647    -0.31761877     0.00000000

      Atomic Mass 
      ----------- 

      C                 12.000000
      Cl                34.968850
      H                  1.007825


 Effective nuclear repulsion energy (a.u.)     147.8111734060

            Nuclear Dipole moment (a.u.) 
            ----------------------------
        X                 Y               Z
 ---------------- ---------------- ----------------
    -0.0000000000    -0.0000000000     0.0000000000

      Symmetry information
      --------------------

 Group name             Cs        
 Group number              2
 Group order               2
 No. of unique centers     8

      Symmetry unique atoms

     1    2    3    4    5    7    8    9



                                Z-matrix (autoz)
                                -------- 

 Units are Angstrom for bonds and degrees for angles

      Type          Name      I     J     K     L     M      Value
      ----------- --------  ----- ----- ----- ----- ----- ----------
    1 Stretch                  1     2                       1.49927
    2 Stretch                  1     5                       1.11049
    3 Stretch                  1     6                       1.11049
    4 Stretch                  1     7                       1.11013
    5 Stretch                  2     3                       1.33617
    6 Stretch                  2     4                       1.75922
    7 Stretch                  3     8                       1.08609
    8 Stretch                  3     9                       1.08534
    9 Bend                     1     2     3               120.65491
   10 Bend                     1     2     4               119.72219
   11 Bend                     2     1     5               109.88419
   12 Bend                     2     1     6               109.88419
   13 Bend                     2     1     7               110.35562
   14 Bend                     2     3     8               120.81495
   15 Bend                     2     3     9               120.48520
   16 Bend                     3     2     4               119.62290
   17 Bend                     5     1     6               109.33270
   18 Bend                     5     1     7               108.67696
   19 Bend                     6     1     7               108.67696
   20 Bend                     8     3     9               118.69985
   21 Torsion                  1     2     3     8           0.00000
   22 Torsion                  1     2     3     9         180.00000
   23 Torsion                  3     2     1     5         -60.17146
   24 Torsion                  3     2     1     6          60.17146
   25 Torsion                  3     2     1     7         180.00000
   26 Torsion                  4     2     1     5         119.82854
   27 Torsion                  4     2     1     6        -119.82854
   28 Torsion                  4     2     1     7           0.00000
   29 Torsion                  4     2     3     8         180.00000
   30 Torsion                  4     2     3     9           0.00000


            XYZ format geometry
            -------------------
     9
 geometry
 C                    -1.11604660    -1.28390401     0.00000000
 C                     0.10376501    -0.41219017     0.00000000
 C                     1.32636247    -0.95127611     0.00000000
 Cl                   -0.07488746     1.33793725     0.00000000
 H                    -1.12133274    -1.92612224    -0.90593947
 H                    -1.12133274    -1.92612224     0.90593947
 H                    -2.03537056    -0.66162364     0.00000000
 H                     1.45911112    -2.02922468     0.00000000
 H                     2.20752647    -0.31761877     0.00000000

 ==============================================================================
                                internuclear distances
 ------------------------------------------------------------------------------
       center one      |      center two      | atomic units |  angstroms
 ------------------------------------------------------------------------------
    2 C                |   1 C                |     2.83322  |     1.49927
    3 C                |   2 C                |     2.52500  |     1.33617
    4 Cl               |   2 C                |     3.32445  |     1.75922
    5 H                |   1 C                |     2.09853  |     1.11049
    6 H                |   1 C                |     2.09853  |     1.11049
    7 H                |   1 C                |     2.09784  |     1.11013
    8 H                |   3 C                |     2.05242  |     1.08609
    9 H                |   3 C                |     2.05100  |     1.08534
 ------------------------------------------------------------------------------
                         number of included internuclear distances:          8
 ==============================================================================



 ==============================================================================
                                 internuclear angles
 ------------------------------------------------------------------------------
        center 1       |       center 2       |       center 3       |  degrees
 ------------------------------------------------------------------------------
    2 C                |   1 C                |   5 H                |   109.88
    2 C                |   1 C                |   6 H                |   109.88
    2 C                |   1 C                |   7 H                |   110.36
    5 H                |   1 C                |   6 H                |   109.33
    5 H                |   1 C                |   7 H                |   108.68
    6 H                |   1 C                |   7 H                |   108.68
    1 C                |   2 C                |   3 C                |   120.65
    1 C                |   2 C                |   4 Cl               |   119.72
    3 C                |   2 C                |   4 Cl               |   119.62
    2 C                |   3 C                |   8 H                |   120.81
    2 C                |   3 C                |   9 H                |   120.49
    8 H                |   3 C                |   9 H                |   118.70
 ------------------------------------------------------------------------------
                            number of included internuclear angles:         12
 ==============================================================================





 Summary of "ao basis" -> "" (spherical)
 ------------------------------------------------------------------------------
       Tag                 Description            Shells   Functions and Types
 ---------------- ------------------------------  ------  ---------------------
 *                           6-311G                   on all atoms 




                           NWChem Geometry Optimization
                           ----------------------------




                               Molecule conformer 0


  no constraints, skipping    0.0000000000000000     
 maximum gradient threshold         (gmax) =   0.000450
 rms gradient threshold             (grms) =   0.000300
 maximum cartesian step threshold   (xmax) =   0.001800
 rms cartesian step threshold       (xrms) =   0.001200
 fixed trust radius                (trust) =   0.300000
 maximum step size to saddle      (sadstp) =   0.100000
 energy precision                  (eprec) =   5.0D-06
 maximum number of steps          (nptopt) =  500
 initial hessian option           (inhess) =    0
 line search option               (linopt) =    1
 hessian update option            (modupd) =    1
 saddle point option              (modsad) =    0
 initial eigen-mode to follow     (moddir) =    0
 initial variable to follow       (vardir) =    0
 follow first negative mode     (firstneg) =    T
 apply conjugacy                    (opcg) =    F
 source of zmatrix                         =   autoz   


          -------------------
          Energy Minimization
          -------------------


 Names of Z-matrix variables 
    1              2              3              4              5         
    6              7              8              9             10         
   11             12             13             14             15         
   16             17             18             19             20         
   21             22             23             24             25         
   26             27             28             29             30         

 Variables with the same non-blank name are constrained to be equal


 Using diagonal initial Hessian 
 Scaling for Hessian diagonals: bonds = 1.00  angles = 0.25  torsions = 0.10

          --------
          Step   0
          --------


                         Geometry "geometry" -> "geometry"
                         ---------------------------------

 Output coordinates in angstroms (scale by  1.889725989 to convert to a.u.)

  No.       Tag          Charge          X              Y              Z
 ---- ---------------- ---------- -------------- -------------- --------------
    1 C                    6.0000    -1.11604660    -1.28390401     0.00000000
    2 C                    6.0000     0.10376501    -0.41219017     0.00000000
    3 C                    6.0000     1.32636247    -0.95127611     0.00000000
    4 Cl                  17.0000    -0.07488746     1.33793725     0.00000000
    5 H                    1.0000    -1.12133274    -1.92612224    -0.90593947
    6 H                    1.0000    -1.12133274    -1.92612224     0.90593947
    7 H                    1.0000    -2.03537056    -0.66162364     0.00000000
    8 H                    1.0000     1.45911112    -2.02922468     0.00000000
    9 H                    1.0000     2.20752647    -0.31761877     0.00000000

      Atomic Mass 
      ----------- 

      C                 12.000000
      Cl                34.968850
      H                  1.007825


 Effective nuclear repulsion energy (a.u.)     147.8111734060

            Nuclear Dipole moment (a.u.) 
            ----------------------------
        X                 Y               Z
 ---------------- ---------------- ----------------
    -0.0000000000    -0.0000000000     0.0000000000

      Symmetry information
      --------------------

 Group name             Cs        
 Group number              2
 Group order               2
 No. of unique centers     8

      Symmetry unique atoms

     1    2    3    4    5    7    8    9


                                 NWChem DFT Module
                                 -----------------


                               Molecule conformer 0


                      Basis "ao basis" -> "ao basis" (spherical)
                      -----
  C (Carbon)
  ----------
            Exponent  Coefficients 
       -------------- ---------------------------------------------------------
  1 S  4.56324000E+03  0.001967
  1 S  6.82024000E+02  0.015231
  1 S  1.54973000E+02  0.076127
  1 S  4.44553000E+01  0.260801
  1 S  1.30290000E+01  0.616462
  1 S  1.82773000E+00  0.221006

  2 S  2.09642000E+01  0.114660
  2 S  4.80331000E+00  0.919999
  2 S  1.45933000E+00 -0.003031

  3 P  2.09642000E+01  0.040249
  3 P  4.80331000E+00  0.237594
  3 P  1.45933000E+00  0.815854

  4 S  4.83456000E-01  1.000000

  5 P  4.83456000E-01  1.000000

  6 S  1.45585000E-01  1.000000

  7 P  1.45585000E-01  1.000000

  Cl (Chlorine)
  -------------
            Exponent  Coefficients 
       -------------- ---------------------------------------------------------
  1 S  1.05819000E+05  0.000738
  1 S  1.58720000E+04  0.005718
  1 S  3.61965000E+03  0.029495
  1 S  1.03080000E+03  0.117286
  1 S  3.39908000E+02  0.362949
  1 S  1.24538000E+02  0.584149

  2 S  1.24538000E+02  0.134177
  2 S  4.95135000E+01  0.624250
  2 S  2.08056000E+01  0.291756

  3 S  6.58346000E+00  1.000000

  4 S  2.56468000E+00  1.000000

  5 S  5.59763000E-01  1.000000

  6 S  1.83273000E-01  1.000000

  7 P  5.89776000E+02  0.002391
  7 P  1.39849000E+02  0.018504
  7 P  4.51413000E+01  0.081377
  7 P  1.68733000E+01  0.221552
  7 P  6.74110000E+00  0.772569

  8 P  6.74110000E+00 -1.572244
  8 P  2.77152000E+00  0.992389

  9 P  1.02387000E+00  1.000000

 10 P  3.81368000E-01  1.000000

 11 P  1.09437000E-01  1.000000

  H (Hydrogen)
  ------------
            Exponent  Coefficients 
       -------------- ---------------------------------------------------------
  1 S  3.38650000E+01  0.025494
  1 S  5.09479000E+00  0.190373
  1 S  1.15879000E+00  0.852161

  2 S  3.25840000E-01  1.000000

  3 S  1.02741000E-01  1.000000



 Summary of "ao basis" -> "ao basis" (spherical)
 ------------------------------------------------------------------------------
       Tag                 Description            Shells   Functions and Types
 ---------------- ------------------------------  ------  ---------------------
 C                           6-311G                  7       13   4s3p
 Cl                          6-311G                 11       21   6s5p
 H                           6-311G                  3        3   3s




 Summary of "ao basis" -> "ao basis" (spherical)
 ------------------------------------------------------------------------------
       Tag                 Description            Shells   Functions and Types
 ---------------- ------------------------------  ------  ---------------------
 C                           6-311G                  7       13   4s3p
 Cl                          6-311G                 11       21   6s5p
 H                           6-311G                  3        3   3s


      Symmetry analysis of basis
      --------------------------

        a'         58
        a"         17

  Caching 1-el integrals 

            General Information
            -------------------
          SCF calculation type: DFT
          Wavefunction type:  closed shell.
          No. of atoms     :     9
          No. of electrons :    40
           Alpha electrons :    20
            Beta electrons :    20
          Charge           :     0
          Spin multiplicity:     1
          Use of symmetry is: on ; symmetry adaption is: on 
          Maximum number of iterations: ***
          This is a Direct SCF calculation.
          AO basis - number of functions:    75
                     number of shells:    47
          Convergence on energy requested:  1.00D-06
          Convergence on density requested:  1.00D-05
          Convergence on gradient requested:  5.00D-04

              XC Information
              --------------
                         B3LYP Method XC Potential
                     Hartree-Fock (Exact) Exchange  0.200          
                        Slater Exchange Functional  0.800 local    
                    Becke 1988 Exchange Functional  0.720 non-local
              Lee-Yang-Parr Correlation Functional  0.810          
                  VWN I RPA Correlation Functional  0.190 local    

             Grid Information
             ----------------
          Grid used for XC integration:  fine      
          Radial quadrature: Mura-Knowles        
          Angular quadrature: Lebedev. 
          Tag              B.-S. Rad. Rad. Pts. Rad. Cut. Ang. Pts.
          ---              ---------- --------- --------- ---------
          C                   0.70       70          11.0       590
          Cl                  1.00      123          11.0       770
          H                   0.35       60          12.0       590
          Grid pruning is: on 
          Number of quadrature shells:   573
          Spatial weights used:  Erf1

          Convergence Information
          -----------------------
          Convergence aids based upon iterative change in 
          total energy or number of iterations. 
          Levelshifting, if invoked, occurs when the 
          HOMO/LUMO gap drops below (HL_TOL):  1.00D-02
          DIIS, if invoked, will attempt to extrapolate 
          using up to (NFOCK): 10 stored Fock matrices.

                    Damping( 0%)  Levelshifting(0.5)       DIIS
                  --------------- ------------------- ---------------
          dE  on:    start            ASAP                start   
          dE off:    2 iters        *** iters           *** iters 


      Screening Tolerance Information
      -------------------------------
          Density screening/tol_rho:  1.00D-10
          AO Gaussian exp screening on grid/accAOfunc:  14
          CD Gaussian exp screening on grid/accCDfunc:  20
          XC Gaussian exp screening on grid/accXCfunc:  20
          Schwarz screening/accCoul:  1.00D-08

          Performing ZORA calculations
          ----------------------------


      Superposition of Atomic Density Guess
      -------------------------------------

 Sum of atomic energies:        -574.98156165

 Read atomic ZORA corrections from ./CC(=C)Cl_mol_2_conformer_0.zora_sf

 dft_zora_read: failed to open./CC(=C)Cl_mol_2_conformer_0.zora_sf
 Forcing recalculation of ZORA corrections
       Generating atomic ZORA corrections
       ----------------------------------

 In dft_scf:: zora:Knucl= F

 Grid_pts file          = ./CC(=C)Cl_mol_2_conformer_0.gridpts.00
 Record size in doubles =  12289        No. of grid_pts per rec  =   3070
 Max. records in memory =      5        Max. recs in file   =     13507


 Wrote atomic ZORA corrections to ./CC(=C)Cl_mol_2_conformer_0.zora_sf


      Superposition of Atomic Density Guess
      -------------------------------------

 Sum of atomic energies:        -574.98156165

      Non-variational initial energy
      ------------------------------

 Total energy =    -577.070964
 1-e energy   =   -1082.061362
 2-e energy   =     357.179224
 HOMO         =      -0.276813
 LUMO         =       0.026840


      Symmetry analysis of molecular orbitals - initial
      -------------------------------------------------

  Numbering of irreducible representations: 

     1 a'          2 a"      

  Orbital symmetries:

     1 a'          2 a'          3 a'          4 a'          5 a'      
     6 a'          7 a'          8 a"          9 a'         10 a'      
    11 a'         12 a'         13 a'         14 a'         15 a"      
    16 a'         17 a"         18 a'         19 a'         20 a"      
    21 a"         22 a'         23 a'         24 a'         25 a'      
    26 a'         27 a"         28 a'         29 a'         30 a"      

   Time after variat. SCF:      6.3
   Time prior to 1st pass:      6.3

           Memory utilization after 1st SCF pass: 
           Heap Space remaining (MW):      131.01           131006386
          Stack Space remaining (MW):      131.06           131060060

   convergence    iter        energy       DeltaE   RMS-Dens  Diis-err    time
 ---------------- ----- ----------------- --------- --------- ---------  ------
 d= 0,ls=0.0,diis     1   -579.6365800304 -7.27D+02  1.48D-02  3.77D+01     9.2
 d= 0,ls=0.0,diis     2   -579.6387873098 -2.21D-03  2.10D-02  8.01D-01    11.8
 d= 0,ls=0.0,diis     3   -579.4783083689  1.60D-01  1.30D-02  1.80D+00    14.4
 d= 0,ls=0.0,diis     4   -579.7334881592 -2.55D-01  1.49D-03  1.33D-02    16.6
 d= 0,ls=0.0,diis     5   -579.7348872212 -1.40D-03  7.51D-04  3.04D-03    19.7
  Resetting Diis
 d= 0,ls=0.0,diis     6   -579.7352940898 -4.07D-04  9.45D-05  6.31D-05    22.2
 d= 0,ls=0.0,diis     7   -579.7353000167 -5.93D-06  5.21D-05  4.17D-06    24.6
 d= 0,ls=0.0,diis     8   -579.7352997106  3.06D-07  2.59D-05  6.78D-06    27.0
 d= 0,ls=0.0,diis     9   -579.7353005669 -8.56D-07  4.06D-06  2.29D-07    29.3
(nogshift,skip_gshiftAOev,done_Fji)=( 1,F,F)


         Total DFT energy =     -579.735300566909
      One electron energy =    -1087.839597395257
           Coulomb energy =      406.775625490941
    Exchange-Corr. energy =      -46.482502068614
 Nuclear repulsion energy =      147.811173406020

       Scaling correction =        0.810184779301

 Numeric. integr. density =       40.000000528064

     Total iterative time =     23.2s



                  Occupations of the irreducible representations
                  ----------------------------------------------

                     irrep           alpha         beta
                     --------     --------     --------
                     a'               16.0         16.0
                     a"                4.0          4.0


 center of mass
 --------------
 x =   0.01327790 y =   0.20146560 z =   0.00000000

 moments of inertia (a.u.)
 ------------------
         386.520960144255          -0.000000000516           0.000000000000
          -0.000000000516         184.981140795608           0.000000000000
           0.000000000000           0.000000000000         559.686898792670

            General Information
            -------------------
          SCF calculation type: DFT
          Wavefunction type:  closed shell.
          No. of atoms     :     9
          No. of electrons :    40
           Alpha electrons :    20
            Beta electrons :    20
          Charge           :     0
          Spin multiplicity:     1
          Use of symmetry is: on ; symmetry adaption is: on 
          Maximum number of iterations: ***
          This is a Direct SCF calculation.
          AO basis - number of functions:    75
                     number of shells:    47
          Convergence on energy requested:  1.00D-06
          Convergence on density requested:  1.00D-05
          Convergence on gradient requested:  5.00D-04

              XC Information
              --------------
                         B3LYP Method XC Potential
                     Hartree-Fock (Exact) Exchange  0.200          
                        Slater Exchange Functional  0.800 local    
                    Becke 1988 Exchange Functional  0.720 non-local
              Lee-Yang-Parr Correlation Functional  0.810          
                  VWN I RPA Correlation Functional  0.190 local    

             Grid Information
             ----------------
          Grid used for XC integration:  fine      
          Radial quadrature: Mura-Knowles        
          Angular quadrature: Lebedev. 
          Tag              B.-S. Rad. Rad. Pts. Rad. Cut. Ang. Pts.
          ---              ---------- --------- --------- ---------
          C                   0.70       70          11.0       590
          Cl                  1.00      123          11.0       770
          H                   0.35       60          12.0       590
          Grid pruning is: on 
          Number of quadrature shells:   573
          Spatial weights used:  Erf1

          Convergence Information
          -----------------------
          Convergence aids based upon iterative change in 
          total energy or number of iterations. 
          Levelshifting, if invoked, occurs when the 
          HOMO/LUMO gap drops below (HL_TOL):  1.00D-02
          DIIS, if invoked, will attempt to extrapolate 
          using up to (NFOCK): 10 stored Fock matrices.

                    Damping( 0%)  Levelshifting(0.5)       DIIS
                  --------------- ------------------- ---------------
          dE  on:    start            ASAP                start   
          dE off:    2 iters        *** iters           *** iters 


      Screening Tolerance Information
      -------------------------------
          Density screening/tol_rho:  1.00D-10
          AO Gaussian exp screening on grid/accAOfunc:  14
          CD Gaussian exp screening on grid/accCDfunc:  20
          XC Gaussian exp screening on grid/accXCfunc:  20
          Schwarz screening/accCoul:  1.00D-08



                            NWChem DFT Gradient Module
                            --------------------------


                               Molecule conformer 0



  charge          =   0.00
  wavefunction    = closed shell

  Using symmetry


                         DFT ENERGY GRADIENTS

    atom               coordinates                        gradient
                 x          y          z           x          y          z
   1 C      -2.109022  -2.426227   0.000000    0.019180  -0.004740   0.000000
   2 C       0.196087  -0.778926   0.000000   -0.021318   0.044545   0.000000
   3 C       2.506462  -1.797651   0.000000   -0.002295  -0.012844   0.000000
   4 Cl     -0.141517   2.528335   0.000000    0.007629  -0.027443   0.000000
   5 H      -2.119012  -3.639843  -1.711977    0.002273  -0.006186  -0.010833
   6 H      -2.119012  -3.639843   1.711977    0.002273  -0.006186   0.010833
   7 H      -3.846293  -1.250287   0.000000   -0.008493   0.011155   0.000000
   8 H       2.757320  -3.834679   0.000000    0.000469  -0.003367   0.000000
   9 H       4.171620  -0.600212   0.000000    0.000283   0.005067   0.000000

                 ----------------------------------------
                 |  Time  |  1-e(secs)   |  2-e(secs)   |
                 ----------------------------------------
                 |  CPU   |       0.00   |       0.10   |
                 ----------------------------------------
                 |  WALL  |       0.00   |       0.10   |
                 ----------------------------------------
  no constraints, skipping    0.0000000000000000     

@ Step       Energy      Delta E   Gmax     Grms     Xrms     Xmax   Walltime
@ ---- ---------------- -------- -------- -------- -------- -------- --------
@    0    -579.73530057  0.0D+00  0.02808  0.00728  0.00000  0.00000     31.6
                                                                    



                                Z-matrix (autoz)
                                -------- 

 Units are Angstrom for bonds and degrees for angles

      Type          Name      I     J     K     L     M      Value     Gradient
      ----------- --------  ----- ----- ----- ----- ----- ---------- ----------
    1 Stretch                  1     2                       1.49927   -0.00893
    2 Stretch                  1     5                       1.11049    0.01240
    3 Stretch                  1     6                       1.11049    0.01240
    4 Stretch                  1     7                       1.11013    0.01329
    5 Stretch                  2     3                       1.33617    0.00308
    6 Stretch                  2     4                       1.75922   -0.02808
    7 Stretch                  3     8                       1.08609    0.00340
    8 Stretch                  3     9                       1.08534    0.00319
    9 Bend                     1     2     3               120.65491   -0.00956
   10 Bend                     1     2     4               119.72219    0.00900
   11 Bend                     2     1     5               109.88419   -0.00117
   12 Bend                     2     1     6               109.88419   -0.00117
   13 Bend                     2     1     7               110.35562   -0.00296
   14 Bend                     2     3     8               120.81495    0.00147
   15 Bend                     2     3     9               120.48520   -0.00288
   16 Bend                     3     2     4               119.62290    0.00055
   17 Bend                     5     1     6               109.33270    0.00144
   18 Bend                     5     1     7               108.67696    0.00198
   19 Bend                     6     1     7               108.67696    0.00198
   20 Bend                     8     3     9               118.69985    0.00141
   21 Torsion                  1     2     3     8           0.00000   -0.00000
   22 Torsion                  1     2     3     9         180.00000   -0.00000
   23 Torsion                  3     2     1     5         -60.17146   -0.00015
   24 Torsion                  3     2     1     6          60.17146    0.00015
   25 Torsion                  3     2     1     7         180.00000    0.00000
   26 Torsion                  4     2     1     5         119.82854   -0.00015
   27 Torsion                  4     2     1     6        -119.82854    0.00015
   28 Torsion                  4     2     1     7           0.00000    0.00000
   29 Torsion                  4     2     3     8         180.00000   -0.00000
   30 Torsion                  4     2     3     9           0.00000   -0.00000

  no constraints, skipping    0.0000000000000000     
  no constraints, skipping    0.0000000000000000     
  no constraints, skipping    0.0000000000000000     
  no constraints, skipping    0.0000000000000000     
  no constraints, skipping    0.0000000000000000     
  no constraints, skipping    0.0000000000000000     
  no constraints, skipping    0.0000000000000000     
  no constraints, skipping    0.0000000000000000     

                                 NWChem DFT Module
                                 -----------------


                               Molecule conformer 0




 Summary of "ao basis" -> "ao basis" (spherical)
 ------------------------------------------------------------------------------
       Tag                 Description            Shells   Functions and Types
 ---------------- ------------------------------  ------  ---------------------
 C                           6-311G                  7       13   4s3p
 Cl                          6-311G                 11       21   6s5p
 H                           6-311G                  3        3   3s


      Symmetry analysis of basis
      --------------------------

        a'         58
        a"         17

  Caching 1-el integrals 

            General Information
            -------------------
          SCF calculation type: DFT
          Wavefunction type:  closed shell.
          No. of atoms     :     9
          No. of electrons :    40
           Alpha electrons :    20
            Beta electrons :    20
          Charge           :     0
          Spin multiplicity:     1
          Use of symmetry is: on ; symmetry adaption is: on 
          Maximum number of iterations: ***
          This is a Direct SCF calculation.
          AO basis - number of functions:    75
                     number of shells:    47
          Convergence on energy requested:  1.00D-06
          Convergence on density requested:  1.00D-05
          Convergence on gradient requested:  5.00D-04

              XC Information
              --------------
                         B3LYP Method XC Potential
                     Hartree-Fock (Exact) Exchange  0.200          
                        Slater Exchange Functional  0.800 local    
                    Becke 1988 Exchange Functional  0.720 non-local
              Lee-Yang-Parr Correlation Functional  0.810          
                  VWN I RPA Correlation Functional  0.190 local    

             Grid Information
             ----------------
          Grid used for XC integration:  fine      
          Radial quadrature: Mura-Knowles        
          Angular quadrature: Lebedev. 
          Tag              B.-S. Rad. Rad. Pts. Rad. Cut. Ang. Pts.
          ---              ---------- --------- --------- ---------
          C                   0.70       70          11.0       590
          Cl                  1.00      123          11.0       770
          H                   0.35       60          12.0       590
          Grid pruning is: on 
          Number of quadrature shells:   573
          Spatial weights used:  Erf1

          Convergence Information
          -----------------------
          Convergence aids based upon iterative change in 
          total energy or number of iterations. 
          Levelshifting, if invoked, occurs when the 
          HOMO/LUMO gap drops below (HL_TOL):  1.00D-02
          DIIS, if invoked, will attempt to extrapolate 
          using up to (NFOCK): 10 stored Fock matrices.

                    Damping( 0%)  Levelshifting(0.5)       DIIS
                  --------------- ------------------- ---------------
          dE  on:    start            ASAP                start   
          dE off:    2 iters        *** iters           *** iters 


      Screening Tolerance Information
      -------------------------------
          Density screening/tol_rho:  1.00D-10
          AO Gaussian exp screening on grid/accAOfunc:  14
          CD Gaussian exp screening on grid/accCDfunc:  20
          XC Gaussian exp screening on grid/accXCfunc:  20
          Schwarz screening/accCoul:  1.00D-08

          Performing ZORA calculations
          ----------------------------


      Superposition of Atomic Density Guess
      -------------------------------------

 Sum of atomic energies:        -574.98156165

 Read atomic ZORA corrections from ./CC(=C)Cl_mol_2_conformer_0.zora_sf

 Forcing recalculation of ZORA corrections
       Generating atomic ZORA corrections
       ----------------------------------

 In dft_scf:: zora:Knucl= F

 Grid_pts file          = ./CC(=C)Cl_mol_2_conformer_0.gridpts.00
 Record size in doubles =  12289        No. of grid_pts per rec  =   3070
 Max. records in memory =      5        Max. recs in file   =     13507


 Wrote atomic ZORA corrections to ./CC(=C)Cl_mol_2_conformer_0.zora_sf


 Loading old vectors from job with title :

Molecule conformer 0


      Symmetry analysis of molecular orbitals - initial
      -------------------------------------------------

  Numbering of irreducible representations: 

     1 a'          2 a"      

  Orbital symmetries:

     1 a'          2 a'          3 a'          4 a'          5 a'      
     6 a'          7 a"          8 a'          9 a'         10 a'      
    11 a'         12 a'         13 a'         14 a'         15 a"      
    16 a'         17 a'         18 a"         19 a'         20 a"      
    21 a"         22 a'         23 a'         24 a'         25 a'      
    26 a'         27 a"         28 a'         29 a'         30 a"      

   Time after variat. SCF:     38.6
   Time prior to 1st pass:     38.6

           Memory utilization after 1st SCF pass: 
           Heap Space remaining (MW):      131.01           131006386
          Stack Space remaining (MW):      131.06           131060060

   convergence    iter        energy       DeltaE   RMS-Dens  Diis-err    time
 ---------------- ----- ----------------- --------- --------- ---------  ------
 d= 0,ls=0.0,diis     1   -579.7378416751 -7.27D+02  2.03D-03  9.18D-03    40.9
 d= 0,ls=0.0,diis     2   -579.7395284385 -1.69D-03  5.75D-04  1.87D-03    43.2
 d= 0,ls=0.0,diis     3   -579.7395488483 -2.04D-05  3.72D-04  1.67D-03    45.5
 d= 0,ls=0.0,diis     4   -579.7397387070 -1.90D-04  1.08D-04  1.39D-04    48.1
 d= 0,ls=0.0,diis     5   -579.7397572790 -1.86D-05  1.61D-05  1.54D-06    50.8
 d= 0,ls=0.0,diis     6   -579.7397574735 -1.94D-07  3.74D-06  2.03D-08    53.1
(nogshift,skip_gshiftAOev,done_Fji)=( 1,F,F)


         Total DFT energy =     -579.739757473473
      One electron energy =    -1085.814851175570
           Coulomb energy =      405.786205900725
    Exchange-Corr. energy =      -46.487816136048
 Nuclear repulsion energy =      146.776703937419

       Scaling correction =        0.810131235123

 Numeric. integr. density =       40.000000527896

     Total iterative time =     14.7s



                  Occupations of the irreducible representations
                  ----------------------------------------------

                     irrep           alpha         beta
                     --------     --------     --------
                     a'               16.0         16.0
                     a"                4.0          4.0


 center of mass
 --------------
 x =  -0.00342192 y =   0.18605445 z =   0.00000000

 moments of inertia (a.u.)
 ------------------
         384.802221505468           6.413945070865           0.000000000000
           6.413945070865         194.462902659771           0.000000000000
           0.000000000000           0.000000000000         567.987485308331
 Line search: 
     step= 1.00 grad=-7.2D-03 hess= 2.7D-03 energy=   -579.739757 mode=downhill
 new step= 1.32                   predicted energy=   -579.740035
  no constraints, skipping    0.0000000000000000     
  no constraints, skipping    0.0000000000000000     
  no constraints, skipping    0.0000000000000000     
  no constraints, skipping    0.0000000000000000     
  no constraints, skipping    0.0000000000000000     
  no constraints, skipping    0.0000000000000000     
  no constraints, skipping    0.0000000000000000     
  no constraints, skipping    0.0000000000000000     

          --------
          Step   1
          --------


                         Geometry "geometry" -> "geometry"
                         ---------------------------------

 Output coordinates in angstroms (scale by  1.889725989 to convert to a.u.)

  No.       Tag          Charge          X              Y              Z
 ---- ---------------- ---------- -------------- -------------- --------------
    1 C                    6.0000    -1.14204077    -1.27910005     0.00000000
    2 C                    6.0000     0.13729150    -0.46709056     0.00000000
    3 C                    6.0000     1.37984807    -0.94737516     0.00000000
    4 Cl                  17.0000    -0.12137927     1.32795164     0.00000000
    5 H                    1.0000    -1.19509286    -1.91281157    -0.87844713
    6 H                    1.0000    -1.19509286    -1.91281157     0.87844713
    7 H                    1.0000    -2.02798285    -0.65746634     0.00000000
    8 H                    1.0000     1.54378355    -2.01414310     0.00000000
    9 H                    1.0000     2.24846046    -0.30729789     0.00000000

      Atomic Mass 
      ----------- 

      C                 12.000000
      Cl                34.968850
      H                  1.007825


 Effective nuclear repulsion energy (a.u.)     146.4754306640

            Nuclear Dipole moment (a.u.) 
            ----------------------------
        X                 Y               Z
 ---------------- ---------------- ----------------
    -0.8291727601    -0.7384052258     0.0000000000

      Symmetry information
      --------------------

 Group name             Cs        
 Group number              2
 Group order               2
 No. of unique centers     8

      Symmetry unique atoms

     1    2    3    4    5    7    8    9


                                 NWChem DFT Module
                                 -----------------


                               Molecule conformer 0




 Summary of "ao basis" -> "ao basis" (spherical)
 ------------------------------------------------------------------------------
       Tag                 Description            Shells   Functions and Types
 ---------------- ------------------------------  ------  ---------------------
 C                           6-311G                  7       13   4s3p
 Cl                          6-311G                 11       21   6s5p
 H                           6-311G                  3        3   3s


      Symmetry analysis of basis
      --------------------------

        a'         58
        a"         17

  Caching 1-el integrals 

            General Information
            -------------------
          SCF calculation type: DFT
          Wavefunction type:  closed shell.
          No. of atoms     :     9
          No. of electrons :    40
           Alpha electrons :    20
            Beta electrons :    20
          Charge           :     0
          Spin multiplicity:     1
          Use of symmetry is: on ; symmetry adaption is: on 
          Maximum number of iterations: ***
          This is a Direct SCF calculation.
          AO basis - number of functions:    75
                     number of shells:    47
          Convergence on energy requested:  1.00D-06
          Convergence on density requested:  1.00D-05
          Convergence on gradient requested:  5.00D-04

              XC Information
              --------------
                         B3LYP Method XC Potential
                     Hartree-Fock (Exact) Exchange  0.200          
                        Slater Exchange Functional  0.800 local    
                    Becke 1988 Exchange Functional  0.720 non-local
              Lee-Yang-Parr Correlation Functional  0.810          
                  VWN I RPA Correlation Functional  0.190 local    

             Grid Information
             ----------------
          Grid used for XC integration:  fine      
          Radial quadrature: Mura-Knowles        
          Angular quadrature: Lebedev. 
          Tag              B.-S. Rad. Rad. Pts. Rad. Cut. Ang. Pts.
          ---              ---------- --------- --------- ---------
          C                   0.70       70          11.0       590
          Cl                  1.00      123          11.0       770
          H                   0.35       60          12.0       590
          Grid pruning is: on 
          Number of quadrature shells:   573
          Spatial weights used:  Erf1

          Convergence Information
          -----------------------
          Convergence aids based upon iterative change in 
          total energy or number of iterations. 
          Levelshifting, if invoked, occurs when the 
          HOMO/LUMO gap drops below (HL_TOL):  1.00D-02
          DIIS, if invoked, will attempt to extrapolate 
          using up to (NFOCK): 10 stored Fock matrices.

                    Damping( 0%)  Levelshifting(0.5)       DIIS
                  --------------- ------------------- ---------------
          dE  on:    start            ASAP                start   
          dE off:    2 iters        *** iters           *** iters 


      Screening Tolerance Information
      -------------------------------
          Density screening/tol_rho:  1.00D-10
          AO Gaussian exp screening on grid/accAOfunc:  14
          CD Gaussian exp screening on grid/accCDfunc:  20
          XC Gaussian exp screening on grid/accXCfunc:  20
          Schwarz screening/accCoul:  1.00D-08

          Performing ZORA calculations
          ----------------------------


      Superposition of Atomic Density Guess
      -------------------------------------

 Sum of atomic energies:        -574.98156165

 Read atomic ZORA corrections from ./CC(=C)Cl_mol_2_conformer_0.zora_sf

 Forcing recalculation of ZORA corrections
       Generating atomic ZORA corrections
       ----------------------------------

 In dft_scf:: zora:Knucl= F

 Grid_pts file          = ./CC(=C)Cl_mol_2_conformer_0.gridpts.00
 Record size in doubles =  12289        No. of grid_pts per rec  =   3070
 Max. records in memory =      5        Max. recs in file   =     13507


 Wrote atomic ZORA corrections to ./CC(=C)Cl_mol_2_conformer_0.zora_sf


 Loading old vectors from job with title :

Molecule conformer 0


      Symmetry analysis of molecular orbitals - initial
      -------------------------------------------------

  Numbering of irreducible representations: 

     1 a'          2 a"      

  Orbital symmetries:

     1 a'          2 a'          3 a'          4 a'          5 a'      
     6 a'          7 a"          8 a'          9 a'         10 a'      
    11 a'         12 a'         13 a'         14 a'         15 a"      
    16 a'         17 a'         18 a"         19 a'         20 a"      
    21 a"         22 a'         23 a'         24 a'         25 a'      
    26 a"         27 a'         28 a'         29 a'         30 a"      

   Time after variat. SCF:     60.8
   Time prior to 1st pass:     60.8

           Memory utilization after 1st SCF pass: 
           Heap Space remaining (MW):      131.01           131006386
          Stack Space remaining (MW):      131.06           131060060

   convergence    iter        energy       DeltaE   RMS-Dens  Diis-err    time
 ---------------- ----- ----------------- --------- --------- ---------  ------
 d= 0,ls=0.0,diis     1   -579.7398793501 -7.26D+02  6.53D-04  9.08D-04    64.0
 d= 0,ls=0.0,diis     2   -579.7400480766 -1.69D-04  1.78D-04  1.78D-04    66.2
 d= 0,ls=0.0,diis     3   -579.7400501810 -2.10D-06  1.14D-04  1.59D-04    68.6
 d= 0,ls=0.0,diis     4   -579.7400680907 -1.79D-05  3.38D-05  1.34D-05    71.3
 d= 0,ls=0.0,diis     5   -579.7400698732 -1.78D-06  4.95D-06  1.56D-07    73.5
 d= 0,ls=0.0,diis     6   -579.7400698928 -1.96D-08  1.20D-06  1.97D-09    75.9
(nogshift,skip_gshiftAOev,done_Fji)=( 1,F,F)


         Total DFT energy =     -579.740069892794
      One electron energy =    -1085.223306641084
           Coulomb energy =      405.497875190976
    Exchange-Corr. energy =      -46.490069106705
 Nuclear repulsion energy =      146.475430664019

       Scaling correction =        0.810113781608

 Numeric. integr. density =       40.000001360507

     Total iterative time =     15.2s



                  Occupations of the irreducible representations
                  ----------------------------------------------

                     irrep           alpha         beta
                     --------     --------     --------
                     a'               16.0         16.0
                     a"                4.0          4.0


 center of mass
 --------------
 x =  -0.00930171 y =   0.18040953 z =   0.00000000

 moments of inertia (a.u.)
 ------------------
         384.048125244314           8.592906867832           0.000000000000
           8.592906867832         197.532001775177           0.000000000000
           0.000000000000           0.000000000000         570.471150554026

            General Information
            -------------------
          SCF calculation type: DFT
          Wavefunction type:  closed shell.
          No. of atoms     :     9
          No. of electrons :    40
           Alpha electrons :    20
            Beta electrons :    20
          Charge           :     0
          Spin multiplicity:     1
          Use of symmetry is: on ; symmetry adaption is: on 
          Maximum number of iterations: ***
          This is a Direct SCF calculation.
          AO basis - number of functions:    75
                     number of shells:    47
          Convergence on energy requested:  1.00D-06
          Convergence on density requested:  1.00D-05
          Convergence on gradient requested:  5.00D-04

              XC Information
              --------------
                         B3LYP Method XC Potential
                     Hartree-Fock (Exact) Exchange  0.200          
                        Slater Exchange Functional  0.800 local    
                    Becke 1988 Exchange Functional  0.720 non-local
              Lee-Yang-Parr Correlation Functional  0.810          
                  VWN I RPA Correlation Functional  0.190 local    

             Grid Information
             ----------------
          Grid used for XC integration:  fine      
          Radial quadrature: Mura-Knowles        
          Angular quadrature: Lebedev. 
          Tag              B.-S. Rad. Rad. Pts. Rad. Cut. Ang. Pts.
          ---              ---------- --------- --------- ---------
          C                   0.70       70          11.0       590
          Cl                  1.00      123          11.0       770
          H                   0.35       60          12.0       590
          Grid pruning is: on 
          Number of quadrature shells:   573
          Spatial weights used:  Erf1

          Convergence Information
          -----------------------
          Convergence aids based upon iterative change in 
          total energy or number of iterations. 
          Levelshifting, if invoked, occurs when the 
          HOMO/LUMO gap drops below (HL_TOL):  1.00D-02
          DIIS, if invoked, will attempt to extrapolate 
          using up to (NFOCK): 10 stored Fock matrices.

                    Damping( 0%)  Levelshifting(0.5)       DIIS
                  --------------- ------------------- ---------------
          dE  on:    start            ASAP                start   
          dE off:    2 iters        *** iters           *** iters 


      Screening Tolerance Information
      -------------------------------
          Density screening/tol_rho:  1.00D-10
          AO Gaussian exp screening on grid/accAOfunc:  14
          CD Gaussian exp screening on grid/accCDfunc:  20
          XC Gaussian exp screening on grid/accXCfunc:  20
          Schwarz screening/accCoul:  1.00D-08



                            NWChem DFT Gradient Module
                            --------------------------


                               Molecule conformer 0



  charge          =   0.00
  wavefunction    = closed shell

  Using symmetry


                         DFT ENERGY GRADIENTS

    atom               coordinates                        gradient
                 x          y          z           x          y          z
   1 C      -2.158144  -2.417149   0.000000   -0.004289  -0.004375   0.000000
   2 C       0.259443  -0.882673   0.000000   -0.001092   0.018089   0.000000
   3 C       2.607535  -1.790279   0.000000    0.005918  -0.006194   0.000000
   4 Cl     -0.229374   2.509465   0.000000    0.000708  -0.012024   0.000000
   5 H      -2.258398  -3.614690  -1.660024   -0.000976   0.002987   0.003708
   6 H      -2.258398  -3.614690   1.660024   -0.000976   0.002987  -0.003708
   7 H      -3.832332  -1.242431   0.000000    0.000991  -0.003801   0.000000
   8 H       2.917328  -3.806179   0.000000   -0.000058   0.002287   0.000000
   9 H       4.248974  -0.580709   0.000000   -0.000227   0.000045   0.000000

                 ----------------------------------------
                 |  Time  |  1-e(secs)   |  2-e(secs)   |
                 ----------------------------------------
                 |  CPU   |       0.00   |       0.10   |
                 ----------------------------------------
                 |  WALL  |       0.00   |       0.10   |
                 ----------------------------------------
  no constraints, skipping    0.0000000000000000     

  Step       Energy      Delta E   Gmax     Grms     Xrms     Xmax   Walltime
  ---- ---------------- -------- -------- -------- -------- -------- --------
@    1    -579.74006989 -4.8D-03  0.01200  0.00308  0.06462  0.15839     78.3
                                                                    



                                Z-matrix (autoz)
                                -------- 

 Units are Angstrom for bonds and degrees for angles

      Type          Name      I     J     K     L     M      Value     Gradient
      ----------- --------  ----- ----- ----- ----- ----- ---------- ----------
    1 Stretch                  1     2                       1.51527    0.00561
    2 Stretch                  1     5                       1.08447   -0.00470
    3 Stretch                  1     6                       1.08447   -0.00470
    4 Stretch                  1     7                       1.08228   -0.00299
    5 Stretch                  2     3                       1.33215    0.00665
    6 Stretch                  2     4                       1.81358   -0.01200
    7 Stretch                  3     8                       1.07929   -0.00227
    8 Stretch                  3     9                       1.07897   -0.00016
    9 Bend                     1     2     3               126.46317   -0.00045
   10 Bend                     1     2     4               114.20381   -0.00069
   11 Bend                     2     1     5               110.75956    0.00032
   12 Bend                     2     1     6               110.75956    0.00032
   13 Bend                     2     1     7               112.54019    0.00161
   14 Bend                     2     3     8               119.86956    0.00027
   15 Bend                     2     3     9               122.48065   -0.00023
   16 Bend                     3     2     4               119.33302    0.00114
   17 Bend                     5     1     6               108.19669   -0.00023
   18 Bend                     5     1     7               107.19306   -0.00108
   19 Bend                     6     1     7               107.19306   -0.00108
   20 Bend                     8     3     9               117.64979   -0.00004
   21 Torsion                  1     2     3     8           0.00000    0.00000
   22 Torsion                  1     2     3     9         180.00000   -0.00000
   23 Torsion                  3     2     1     5         -60.02759   -0.00007
   24 Torsion                  3     2     1     6          60.02759    0.00007
   25 Torsion                  3     2     1     7         180.00000    0.00000
   26 Torsion                  4     2     1     5         119.97241   -0.00007
   27 Torsion                  4     2     1     6        -119.97241    0.00007
   28 Torsion                  4     2     1     7           0.00000   -0.00000
   29 Torsion                  4     2     3     8         180.00000   -0.00000
   30 Torsion                  4     2     3     9           0.00000   -0.00000

  no constraints, skipping    0.0000000000000000     
  no constraints, skipping    0.0000000000000000     
  no constraints, skipping    0.0000000000000000     
  no constraints, skipping    0.0000000000000000     
  no constraints, skipping    0.0000000000000000     
  no constraints, skipping    0.0000000000000000     
  no constraints, skipping    0.0000000000000000     
  no constraints, skipping    0.0000000000000000     

                                 NWChem DFT Module
                                 -----------------


                               Molecule conformer 0




 Summary of "ao basis" -> "ao basis" (spherical)
 ------------------------------------------------------------------------------
       Tag                 Description            Shells   Functions and Types
 ---------------- ------------------------------  ------  ---------------------
 C                           6-311G                  7       13   4s3p
 Cl                          6-311G                 11       21   6s5p
 H                           6-311G                  3        3   3s


      Symmetry analysis of basis
      --------------------------

        a'         58
        a"         17

  Caching 1-el integrals 

            General Information
            -------------------
          SCF calculation type: DFT
          Wavefunction type:  closed shell.
          No. of atoms     :     9
          No. of electrons :    40
           Alpha electrons :    20
            Beta electrons :    20
          Charge           :     0
          Spin multiplicity:     1
          Use of symmetry is: on ; symmetry adaption is: on 
          Maximum number of iterations: ***
          This is a Direct SCF calculation.
          AO basis - number of functions:    75
                     number of shells:    47
          Convergence on energy requested:  1.00D-06
          Convergence on density requested:  1.00D-05
          Convergence on gradient requested:  5.00D-04

              XC Information
              --------------
                         B3LYP Method XC Potential
                     Hartree-Fock (Exact) Exchange  0.200          
                        Slater Exchange Functional  0.800 local    
                    Becke 1988 Exchange Functional  0.720 non-local
              Lee-Yang-Parr Correlation Functional  0.810          
                  VWN I RPA Correlation Functional  0.190 local    

             Grid Information
             ----------------
          Grid used for XC integration:  fine      
          Radial quadrature: Mura-Knowles        
          Angular quadrature: Lebedev. 
          Tag              B.-S. Rad. Rad. Pts. Rad. Cut. Ang. Pts.
          ---              ---------- --------- --------- ---------
          C                   0.70       70          11.0       590
          Cl                  1.00      123          11.0       770
          H                   0.35       60          12.0       590
          Grid pruning is: on 
          Number of quadrature shells:   573
          Spatial weights used:  Erf1

          Convergence Information
          -----------------------
          Convergence aids based upon iterative change in 
          total energy or number of iterations. 
          Levelshifting, if invoked, occurs when the 
          HOMO/LUMO gap drops below (HL_TOL):  1.00D-02
          DIIS, if invoked, will attempt to extrapolate 
          using up to (NFOCK): 10 stored Fock matrices.

                    Damping( 0%)  Levelshifting(0.5)       DIIS
                  --------------- ------------------- ---------------
          dE  on:    start            ASAP                start   
          dE off:    2 iters        *** iters           *** iters 


      Screening Tolerance Information
      -------------------------------
          Density screening/tol_rho:  1.00D-10
          AO Gaussian exp screening on grid/accAOfunc:  14
          CD Gaussian exp screening on grid/accCDfunc:  20
          XC Gaussian exp screening on grid/accXCfunc:  20
          Schwarz screening/accCoul:  1.00D-08

          Performing ZORA calculations
          ----------------------------


      Superposition of Atomic Density Guess
      -------------------------------------

 Sum of atomic energies:        -574.98156165

 Read atomic ZORA corrections from ./CC(=C)Cl_mol_2_conformer_0.zora_sf

 Forcing recalculation of ZORA corrections
       Generating atomic ZORA corrections
       ----------------------------------

 In dft_scf:: zora:Knucl= F

 Grid_pts file          = ./CC(=C)Cl_mol_2_conformer_0.gridpts.00
 Record size in doubles =  12289        No. of grid_pts per rec  =   3070
 Max. records in memory =      5        Max. recs in file   =     13507


 Wrote atomic ZORA corrections to ./CC(=C)Cl_mol_2_conformer_0.zora_sf


 Loading old vectors from job with title :

Molecule conformer 0


      Symmetry analysis of molecular orbitals - initial
      -------------------------------------------------

  Numbering of irreducible representations: 

     1 a'          2 a"      

  Orbital symmetries:

     1 a'          2 a'          3 a'          4 a'          5 a'      
     6 a'          7 a"          8 a'          9 a'         10 a'      
    11 a'         12 a'         13 a'         14 a'         15 a"      
    16 a'         17 a'         18 a"         19 a'         20 a"      
    21 a"         22 a'         23 a'         24 a'         25 a'      
    26 a"         27 a'         28 a'         29 a'         30 a"      

   Time after variat. SCF:     85.1
   Time prior to 1st pass:     85.1

           Memory utilization after 1st SCF pass: 
           Heap Space remaining (MW):      131.01           131006386
          Stack Space remaining (MW):      131.06           131060060

   convergence    iter        energy       DeltaE   RMS-Dens  Diis-err    time
 ---------------- ----- ----------------- --------- --------- ---------  ------
 d= 0,ls=0.0,diis     1   -579.7404724428 -7.26D+02  6.18D-04  1.09D-03    87.8
 d= 0,ls=0.0,diis     2   -579.7406762676 -2.04D-04  1.88D-04  6.15D-05    90.2
 d= 0,ls=0.0,diis     3   -579.7406660970  1.02D-05  1.06D-04  1.44D-04    92.5
 d= 0,ls=0.0,diis     4   -579.7406843361 -1.82D-05  1.97D-05  3.08D-06    95.2
 d= 0,ls=0.0,diis     5   -579.7406847068 -3.71D-07  4.16D-06  3.64D-07    97.7
(nogshift,skip_gshiftAOev,done_Fji)=( 1,F,F)


         Total DFT energy =     -579.740684706804
      One electron energy =    -1084.399624133267
           Coulomb energy =      405.091457663248
    Exchange-Corr. energy =      -46.484152158358
 Nuclear repulsion energy =      146.051633921573

       Scaling correction =        0.810095146293

 Numeric. integr. density =       40.000001361125

     Total iterative time =     12.7s



                  Occupations of the irreducible representations
                  ----------------------------------------------

                     irrep           alpha         beta
                     --------     --------     --------
                     a'               16.0         16.0
                     a"                4.0          4.0


 center of mass
 --------------
 x =  -0.01196062 y =   0.18559590 z =   0.00000000

 moments of inertia (a.u.)
 ------------------
         388.458043125092           8.898941203835           0.000000000000
           8.898941203835         197.012335522159           0.000000000000
           0.000000000000           0.000000000000         574.259197014814
 Line search: 
     step= 1.00 grad=-9.1D-04 hess= 2.9D-04 energy=   -579.740685 mode=downhill
 new step= 1.55                   predicted energy=   -579.740774
  no constraints, skipping    0.0000000000000000     
  no constraints, skipping    0.0000000000000000     
  no constraints, skipping    0.0000000000000000     
  no constraints, skipping    0.0000000000000000     
  no constraints, skipping    0.0000000000000000     
  no constraints, skipping    0.0000000000000000     
  no constraints, skipping    0.0000000000000000     
  no constraints, skipping    0.0000000000000000     

          --------
          Step   2
          --------


                         Geometry "geometry" -> "geometry"
                         ---------------------------------

 Output coordinates in angstroms (scale by  1.889725989 to convert to a.u.)

  No.       Tag          Charge          X              Y              Z
 ---- ---------------- ---------- -------------- -------------- --------------
    1 C                    6.0000    -1.14126862    -1.28346335     0.00000000
    2 C                    6.0000     0.13628756    -0.48664458     0.00000000
    3 C                    6.0000     1.37483655    -0.94628793     0.00000000
    4 Cl                  17.0000    -0.12458691     1.34490647     0.00000000
    5 H                    1.0000    -1.19567099    -1.92172305    -0.88470410
    6 H                    1.0000    -1.19567099    -1.92172305     0.88470410
    7 H                    1.0000    -2.01294279    -0.63659805     0.00000000
    8 H                    1.0000     1.54696223    -2.01621873     0.00000000
    9 H                    1.0000     2.23984893    -0.30239234     0.00000000

      Atomic Mass 
      ----------- 

      C                 12.000000
      Cl                34.968850
      H                  1.007825


 Effective nuclear repulsion energy (a.u.)     145.8235298261

            Nuclear Dipole moment (a.u.) 
            ----------------------------
        X                 Y               Z
 ---------------- ---------------- ----------------
    -0.9756997451    -0.4414783470     0.0000000000

      Symmetry information
      --------------------

 Group name             Cs        
 Group number              2
 Group order               2
 No. of unique centers     8

      Symmetry unique atoms

     1    2    3    4    5    7    8    9


                                 NWChem DFT Module
                                 -----------------


                               Molecule conformer 0




 Summary of "ao basis" -> "ao basis" (spherical)
 ------------------------------------------------------------------------------
       Tag                 Description            Shells   Functions and Types
 ---------------- ------------------------------  ------  ---------------------
 C                           6-311G                  7       13   4s3p
 Cl                          6-311G                 11       21   6s5p
 H                           6-311G                  3        3   3s


      Symmetry analysis of basis
      --------------------------

        a'         58
        a"         17

  Caching 1-el integrals 

            General Information
            -------------------
          SCF calculation type: DFT
          Wavefunction type:  closed shell.
          No. of atoms     :     9
          No. of electrons :    40
           Alpha electrons :    20
            Beta electrons :    20
          Charge           :     0
          Spin multiplicity:     1
          Use of symmetry is: on ; symmetry adaption is: on 
          Maximum number of iterations: ***
          This is a Direct SCF calculation.
          AO basis - number of functions:    75
                     number of shells:    47
          Convergence on energy requested:  1.00D-06
          Convergence on density requested:  1.00D-05
          Convergence on gradient requested:  5.00D-04

              XC Information
              --------------
                         B3LYP Method XC Potential
                     Hartree-Fock (Exact) Exchange  0.200          
                        Slater Exchange Functional  0.800 local    
                    Becke 1988 Exchange Functional  0.720 non-local
              Lee-Yang-Parr Correlation Functional  0.810          
                  VWN I RPA Correlation Functional  0.190 local    

             Grid Information
             ----------------
          Grid used for XC integration:  fine      
          Radial quadrature: Mura-Knowles        
          Angular quadrature: Lebedev. 
          Tag              B.-S. Rad. Rad. Pts. Rad. Cut. Ang. Pts.
          ---              ---------- --------- --------- ---------
          C                   0.70       70          11.0       590
          Cl                  1.00      123          11.0       770
          H                   0.35       60          12.0       590
          Grid pruning is: on 
          Number of quadrature shells:   573
          Spatial weights used:  Erf1

          Convergence Information
          -----------------------
          Convergence aids based upon iterative change in 
          total energy or number of iterations. 
          Levelshifting, if invoked, occurs when the 
          HOMO/LUMO gap drops below (HL_TOL):  1.00D-02
          DIIS, if invoked, will attempt to extrapolate 
          using up to (NFOCK): 10 stored Fock matrices.

                    Damping( 0%)  Levelshifting(0.5)       DIIS
                  --------------- ------------------- ---------------
          dE  on:    start            ASAP                start   
          dE off:    2 iters        *** iters           *** iters 


      Screening Tolerance Information
      -------------------------------
          Density screening/tol_rho:  1.00D-10
          AO Gaussian exp screening on grid/accAOfunc:  14
          CD Gaussian exp screening on grid/accCDfunc:  20
          XC Gaussian exp screening on grid/accXCfunc:  20
          Schwarz screening/accCoul:  1.00D-08

          Performing ZORA calculations
          ----------------------------


      Superposition of Atomic Density Guess
      -------------------------------------

 Sum of atomic energies:        -574.98156165

 Read atomic ZORA corrections from ./CC(=C)Cl_mol_2_conformer_0.zora_sf

 Forcing recalculation of ZORA corrections
       Generating atomic ZORA corrections
       ----------------------------------

 In dft_scf:: zora:Knucl= F

 Grid_pts file          = ./CC(=C)Cl_mol_2_conformer_0.gridpts.00
 Record size in doubles =  12289        No. of grid_pts per rec  =   3070
 Max. records in memory =      5        Max. recs in file   =     13507


 Wrote atomic ZORA corrections to ./CC(=C)Cl_mol_2_conformer_0.zora_sf


 Loading old vectors from job with title :

Molecule conformer 0


      Symmetry analysis of molecular orbitals - initial
      -------------------------------------------------

  Numbering of irreducible representations: 

     1 a'          2 a"      

  Orbital symmetries:

     1 a'          2 a'          3 a'          4 a'          5 a'      
     6 a'          7 a"          8 a'          9 a'         10 a'      
    11 a'         12 a'         13 a'         14 a'         15 a"      
    16 a'         17 a'         18 a"         19 a'         20 a"      
    21 a"         22 a'         23 a'         24 a'         25 a'      
    26 a"         27 a'         28 a'         29 a'         30 a"      

   Time after variat. SCF:    104.6
   Time prior to 1st pass:    104.6

           Memory utilization after 1st SCF pass: 
           Heap Space remaining (MW):      131.01           131006386
          Stack Space remaining (MW):      131.06           131060060

   convergence    iter        energy       DeltaE   RMS-Dens  Diis-err    time
 ---------------- ----- ----------------- --------- --------- ---------  ------
 d= 0,ls=0.0,diis     1   -579.7407217281 -7.26D+02  3.36D-04  3.23D-04   107.4
 d= 0,ls=0.0,diis     2   -579.7407824345 -6.07D-05  9.88D-05  1.71D-05   110.0
 d= 0,ls=0.0,diis     3   -579.7407798949  2.54D-06  5.48D-05  3.78D-05   112.8
 d= 0,ls=0.0,diis     4   -579.7407846676 -4.77D-06  1.12D-05  1.01D-06   115.2
 d= 0,ls=0.0,diis     5   -579.7407847892 -1.22D-07  2.42D-06  1.10D-07   117.8
(nogshift,skip_gshiftAOev,done_Fji)=( 1,F,F)


         Total DFT energy =     -579.740784789176
      One electron energy =    -1083.955533484630
           Coulomb energy =      404.872316298372
    Exchange-Corr. energy =      -46.481097428981
 Nuclear repulsion energy =      145.823529826063

       Scaling correction =        0.810084799459

 Numeric. integr. density =       40.000001262551

     Total iterative time =     13.3s



                  Occupations of the irreducible representations
                  ----------------------------------------------

                     irrep           alpha         beta
                     --------     --------     --------
                     a'               16.0         16.0
                     a"                4.0          4.0


 center of mass
 --------------
 x =  -0.01344300 y =   0.18848605 z =   0.00000000

 moments of inertia (a.u.)
 ------------------
         390.918405738689           9.066737447855           0.000000000000
           9.066737447855         196.711331446786           0.000000000000
           0.000000000000           0.000000000000         576.361943906986

            General Information
            -------------------
          SCF calculation type: DFT
          Wavefunction type:  closed shell.
          No. of atoms     :     9
          No. of electrons :    40
           Alpha electrons :    20
            Beta electrons :    20
          Charge           :     0
          Spin multiplicity:     1
          Use of symmetry is: on ; symmetry adaption is: on 
          Maximum number of iterations: ***
          This is a Direct SCF calculation.
          AO basis - number of functions:    75
                     number of shells:    47
          Convergence on energy requested:  1.00D-06
          Convergence on density requested:  1.00D-05
          Convergence on gradient requested:  5.00D-04

              XC Information
              --------------
                         B3LYP Method XC Potential
                     Hartree-Fock (Exact) Exchange  0.200          
                        Slater Exchange Functional  0.800 local    
                    Becke 1988 Exchange Functional  0.720 non-local
              Lee-Yang-Parr Correlation Functional  0.810          
                  VWN I RPA Correlation Functional  0.190 local    

             Grid Information
             ----------------
          Grid used for XC integration:  fine      
          Radial quadrature: Mura-Knowles        
          Angular quadrature: Lebedev. 
          Tag              B.-S. Rad. Rad. Pts. Rad. Cut. Ang. Pts.
          ---              ---------- --------- --------- ---------
          C                   0.70       70          11.0       590
          Cl                  1.00      123          11.0       770
          H                   0.35       60          12.0       590
          Grid pruning is: on 
          Number of quadrature shells:   573
          Spatial weights used:  Erf1

          Convergence Information
          -----------------------
          Convergence aids based upon iterative change in 
          total energy or number of iterations. 
          Levelshifting, if invoked, occurs when the 
          HOMO/LUMO gap drops below (HL_TOL):  1.00D-02
          DIIS, if invoked, will attempt to extrapolate 
          using up to (NFOCK): 10 stored Fock matrices.

                    Damping( 0%)  Levelshifting(0.5)       DIIS
                  --------------- ------------------- ---------------
          dE  on:    start            ASAP                start   
          dE off:    2 iters        *** iters           *** iters 


      Screening Tolerance Information
      -------------------------------
          Density screening/tol_rho:  1.00D-10
          AO Gaussian exp screening on grid/accAOfunc:  14
          CD Gaussian exp screening on grid/accCDfunc:  20
          XC Gaussian exp screening on grid/accXCfunc:  20
          Schwarz screening/accCoul:  1.00D-08



                            NWChem DFT Gradient Module
                            --------------------------


                               Molecule conformer 0



  charge          =   0.00
  wavefunction    = closed shell

  Using symmetry


                         DFT ENERGY GRADIENTS

    atom               coordinates                        gradient
                 x          y          z           x          y          z
   1 C      -2.156685  -2.425394   0.000000   -0.000929  -0.000357   0.000000
   2 C       0.257546  -0.919625   0.000000    0.005520   0.001799   0.000000
   3 C       2.598064  -1.788225   0.000000   -0.004370   0.001191   0.000000
   4 Cl     -0.235435   2.541505   0.000000   -0.000343  -0.001918   0.000000
   5 H      -2.259491  -3.631530  -1.671848   -0.000011  -0.000185  -0.000379
   6 H      -2.259491  -3.631530   1.671848   -0.000011  -0.000185   0.000379
   7 H      -3.803910  -1.202996   0.000000    0.000554   0.000037   0.000000
   8 H       2.923335  -3.810101   0.000000   -0.000127  -0.000245   0.000000
   9 H       4.232701  -0.571439   0.000000   -0.000282  -0.000137   0.000000

                 ----------------------------------------
                 |  Time  |  1-e(secs)   |  2-e(secs)   |
                 ----------------------------------------
                 |  CPU   |       0.00   |       0.10   |
                 ----------------------------------------
                 |  WALL  |       0.00   |       0.10   |
                 ----------------------------------------
  no constraints, skipping    0.0000000000000000     

  Step       Energy      Delta E   Gmax     Grms     Xrms     Xmax   Walltime
  ---- ---------------- -------- -------- -------- -------- -------- --------
@    2    -579.74078479 -7.1D-04  0.00476  0.00097  0.01518  0.03938    120.4
[...]
dia1(k,t,iat1,ispin)=(  2,  3,  8,  1)=(     0.00062895,     0.00062895) ppm
dia1(k,t,iat1,ispin)=(  3,  1,  8,  1)=(     0.00078722,     0.00078722) ppm
dia1(k,t,iat1,ispin)=(  3,  2,  8,  1)=(    -0.00024711,    -0.00024711) ppm
dia1(k,t,iat1,ispin)=(  3,  3,  8,  1)=(    16.14766762,    16.14766762) ppm
(dia2,par1)(k,t,iat1,spin)=(  1,  1,  8,  1)=(     5.80653785,     5.80653785,     0.37753736,     0.37753736) ppm
(dia2,par1)(k,t,iat1,spin)=(  2,  1,  8,  1)=(     0.81479581,     0.81479581,    -0.42634283,    -0.42634283) ppm
(dia2,par1)(k,t,iat1,spin)=(  3,  1,  8,  1)=(    -0.00074793,    -0.00074793,    -0.00135644,    -0.00135644) ppm
(dia2,par1)(k,t,iat1,spin)=(  1,  2,  8,  1)=(     1.37500290,     1.37500290,     1.31197305,     1.31197305) ppm
(dia2,par1)(k,t,iat1,spin)=(  2,  2,  8,  1)=(     0.11561126,     0.11561126,    -0.93793473,    -0.93793473) ppm
(dia2,par1)(k,t,iat1,spin)=(  3,  2,  8,  1)=(    -0.00287594,    -0.00287594,     0.00044608,     0.00044608) ppm
(dia2,par1)(k,t,iat1,spin)=(  1,  3,  8,  1)=(    -0.00048124,    -0.00048124,     0.00007416,     0.00007416) ppm
(dia2,par1)(k,t,iat1,spin)=(  2,  3,  8,  1)=(     0.00080746,     0.00080746,     0.00021842,     0.00021842) ppm
(dia2,par1)(k,t,iat1,spin)=(  3,  3,  8,  1)=(     5.80435063,     5.80435063,     1.19913797,     1.19913797) ppm
dia1(k,t,iat1,ispin)=(  1,  1,  9,  1)=(    37.08906160,    37.08906160) ppm
dia1(k,t,iat1,ispin)=(  1,  2,  9,  1)=(     8.34225628,     8.34225628) ppm
dia1(k,t,iat1,ispin)=(  1,  3,  9,  1)=(    -0.00126697,    -0.00126697) ppm
dia1(k,t,iat1,ispin)=(  2,  1,  9,  1)=(     7.64607562,     7.64607562) ppm
dia1(k,t,iat1,ispin)=(  2,  2,  9,  1)=(    24.97287883,    24.97287883) ppm
dia1(k,t,iat1,ispin)=(  2,  3,  9,  1)=(     0.00114391,     0.00114391) ppm
dia1(k,t,iat1,ispin)=(  3,  1,  9,  1)=(     0.00091018,     0.00091018) ppm
dia1(k,t,iat1,ispin)=(  3,  2,  9,  1)=(    -0.00005704,    -0.00005704) ppm
dia1(k,t,iat1,ispin)=(  3,  3,  9,  1)=(    15.12767244,    15.12767244) ppm
(dia2,par1)(k,t,iat1,spin)=(  1,  1,  9,  1)=(     1.52245101,     1.52245101,    -0.17273940,    -0.17273940) ppm
(dia2,par1)(k,t,iat1,spin)=(  2,  1,  9,  1)=(    -3.23915335,    -3.23915335,     0.10800512,     0.10800512) ppm
(dia2,par1)(k,t,iat1,spin)=(  3,  1,  9,  1)=(    -0.00045032,    -0.00045032,    -0.00070445,    -0.00070445) ppm
(dia2,par1)(k,t,iat1,spin)=(  1,  2,  9,  1)=(    -3.30896041,    -3.30896041,     0.61495369,     0.61495369) ppm
(dia2,par1)(k,t,iat1,spin)=(  2,  2,  9,  1)=(     3.95766521,     3.95766521,    -0.44220933,    -0.44220933) ppm
(dia2,par1)(k,t,iat1,spin)=(  3,  2,  9,  1)=(    -0.00137910,    -0.00137910,    -0.00177576,    -0.00177576) ppm
(dia2,par1)(k,t,iat1,spin)=(  1,  3,  9,  1)=(    -0.00398705,    -0.00398705,    -0.00003480,    -0.00003480) ppm
(dia2,par1)(k,t,iat1,spin)=(  2,  3,  9,  1)=(    -0.00044768,    -0.00044768,     0.00001306,     0.00001306) ppm
(dia2,par1)(k,t,iat1,spin)=(  3,  3,  9,  1)=(     6.02631000,     6.02631000,    -0.73629326,    -0.73629326) ppm

 Wrote ZORA NMR data to ./CC(=C)Cl_mol_2_conformer_0.zora_nmrcs

(nogshift,skip_gshiftAOev,done_Fji)=( 1,F,T)


         Total DFT energy =     -579.746117013590
      One electron energy =    -1083.869142128116
           Coulomb energy =      404.775487129995
    Exchange-Corr. energy =      -46.478633092402
 Nuclear repulsion energy =      145.575767466397

             COSMO energy =        0.250403610536

       Scaling correction =        0.810205781321

 Numeric. integr. density =       40.000001398794

     Total iterative time =     58.0s


                                   COSMO solvation results
                                   -----------------------

                 gas phase energy =      -579.740921618134
                 sol phase energy =      -579.746117013590
 (electrostatic) solvation energy =         0.005195395456 (    3.26 kcal/mol)

 center of mass
 --------------
 x =  -0.00893063 y =   0.18912418 z =   0.00000000

 moments of inertia (a.u.)
 ------------------
         392.291469619940           8.080500056070           0.000000000000
           8.080500056070         197.406899909313           0.000000000000
           0.000000000000           0.000000000000         578.455299255016

            Scalar ZORA NMR Shielding
            -------------------------


          -----------------------------------------
          Chemical Shielding Tensors (GIAO, in ppm)
          -----------------------------------------


 Read ZORA NMR data from ./CC(=C)Cl_mol_2_conformer_0.zora_nmrcs

    0 giaofock schwarz done =      81.23%
    0 giaofock schwarz done =      81.72%
                                NWChem CPHF Module
                                ------------------



 solvent parameters
 solvname_short: cdcl3   
 solvname_long:  unknown                            
 dielec:       78.4000
 dielecinf:     1.7769

          ---------------
          -cosmo- solvent
          ---------------
 Cosmo: York-Karplus, doi: 10.1021/jp992097l
 dielectric constant -eps-     =  78.40
 screen = (eps-1)/(eps    )    =   0.98724
 surface charge correction     = lagrangian
 -lineq- algorithm             =   0
 -bem- low  level              =   2
 -bem- from -octahedral-
 gaussian surface charge width =   0.98000
 degree of switching           =   1.00000
 switching function tolerance  =   0.00010
 atomic radii = 
 --------------
    1  6.000  2.000
    2  6.000  2.000
    3  6.000  2.000
    4 17.000  2.050
    5  1.000  1.300
    6  1.000  1.300
    7  1.000  1.300
    8  1.000  1.300
    9  1.000  1.300

 solvent accessible surface
 --------------------------

 ---------- ATOMIC COORDINATES (A.U.) ------------ VDWR(ANG.) --
     1   -2.16246327   -2.42585863    0.00000000     2.000
     2    0.25236608   -0.93111484    0.00000000     2.000
     3    2.60422034   -1.79002452    0.00000000     2.000
     4   -0.22378161    2.54738472    0.00000000     2.050
     5   -2.26831733   -3.63249579   -1.67001320     1.300
     6   -2.26831733   -3.63249579    1.67001320     1.300
     7   -3.81086463   -1.20311304    0.00000000     1.300
     8    2.94246708   -3.80930442    0.00000000     1.300
     9    4.23132516   -0.56231230    0.00000000     1.300
 number of segments per atom =         32
 number of   points per atom =         32
 atom (   nspa,  nppa )
 ----------------------
    1 (     18,     0 )       0
    2 (     10,     0 )       0
    3 (     20,     0 )       0
    4 (     26,     0 )       0
    5 (     15,     0 )       0
    6 (     15,     0 )       0
    7 (     12,     0 )       0
    8 (     14,     0 )       0
    9 (     14,     0 )       0
 number of -cosmo- surface points =      144
 molecular surface =    115.066 angstrom**2
 molecular volume  =     70.269 angstrom**3
 G(cav/disp)       =      1.435 kcal/mol
 ...... end of -cosmo- initialization ......


  scftype          =     RHF 
  nclosed          =       20
  nopen            =        0
  variables        =     1100
  # of vectors     =        3
  tolerance        = 0.10D-03
  level shift      = 0.00D+00
  max iterations   =       50
  max subspace     =       30

 SCF residual:    1.6680112419193596E-005


Iterative solution of linear equations
  No. of variables     1100
  No. of equations        3
  Maximum subspace       30
        Iterations       50
       Convergence  1.0D-04
        Start time   1053.4


   iter   nsub   residual    time
   ----  ------  --------  ---------
     1      3    4.90D-01    1056.2
     2      6    2.40D-02    1059.8
     3      9    1.79D-03    1062.2
     4     12    5.59D-05    1064.9

 Wrote CPHF data to ./CC(=C)Cl_mol_2_conformer_0.shieldcphf

 Calc. par tensor-> zora
      Atom:    1  H 
        Diamagnetic
     26.4479      3.5954      2.1567
      3.5954     30.7561      7.7166
      2.1567      7.7166     31.0521

        Paramagnetic
      3.1565     -1.2147     -0.9880
     -1.2147      0.2199     -3.6848
     -0.9880     -3.6848     -1.1959

        Total Shielding Tensor
     29.6044      2.3807      1.1686
      2.3807     30.9760      4.0318
      1.1686      4.0318     29.8562

           isotropic =      30.1456
          anisotropy =       8.1709

          Principal Components and Axis System
                 1           2           3
               35.5928     28.6741     26.1697

      1         0.3961      0.8838      0.2490
      2         0.7113     -0.1239     -0.6919
      3         0.5806     -0.4511      0.6778



      Atom:    2  H 
        Diamagnetic
     26.4468      3.5951     -2.1545
      3.5951     30.7545     -7.7151
     -2.1545     -7.7151     31.0507

        Paramagnetic
      3.1534     -1.2155      0.9867
     -1.2155      0.2194      3.6827
      0.9867      3.6827     -1.1951

        Total Shielding Tensor
     29.6003      2.3797     -1.1678
      2.3797     30.9739     -4.0323
     -1.1678     -4.0323     29.8555

           isotropic =      30.1432
          anisotropy =       8.1705

          Principal Components and Axis System
                 1           2           3
               35.5902     28.6717     26.1677

      1         0.3958      0.8839     -0.2491
      2         0.7113     -0.1235      0.6919
      3        -0.5808      0.4511      0.6777



      Atom:    3  H 
        Diamagnetic
     36.8414     -2.5887      0.0023
     -2.5887     29.2515      0.0010
      0.0023      0.0010     21.7188

        Paramagnetic
     -1.3056      2.1248     -0.0021
      2.1248      2.1647     -0.0023
     -0.0021     -0.0023      4.6928

        Total Shielding Tensor
     35.5358     -0.4638      0.0002
     -0.4638     31.4162     -0.0013
      0.0002     -0.0013     26.4116

           isotropic =      31.1212
          anisotropy =       6.6992

          Principal Components and Axis System
                 1           2           3
               35.5873     31.3646     26.4116

      1         0.9939      0.1105     -0.0000
      2        -0.1105      0.9939      0.0003
      3         0.0000     -0.0003      1.0000



      Atom:    4  H 
        Diamagnetic
     28.2527     -5.2989     -0.0006
     -5.2989     39.8955     -0.0008
     -0.0006     -0.0008     21.9520

        Paramagnetic
      1.3614      2.6968      0.0003
      2.6968    -14.2969      0.0024
      0.0003      0.0024      3.8975

        Total Shielding Tensor
     29.6141     -2.6021     -0.0002
     -2.6021     25.5987      0.0016
     -0.0002      0.0016     25.8495

           isotropic =      27.0208
          anisotropy =       5.8084

          Principal Components and Axis System
                 1           2           3
               30.8930     25.8495     24.3198

      1         0.8975      0.0005      0.4411
      2        -0.4411      0.0007      0.8975
      3        -0.0002      1.0000     -0.0009



      Atom:    5  H 
        Diamagnetic
     38.6115      4.7201     -0.0024
      4.7201     28.9305     -0.0004
     -0.0024     -0.0004     21.1540

        Paramagnetic
     -7.4545     -6.9264      0.0023
     -6.9264     -4.2858      0.0009
      0.0023      0.0009      4.6487

        Total Shielding Tensor
     31.1570     -2.2062     -0.0001
     -2.2062     24.6447      0.0005
     -0.0001      0.0005     25.8026

           isotropic =      27.2014
          anisotropy =       6.9489

          Principal Components and Axis System
                 1           2           3
               31.8340     25.8026     23.9676

      1         0.9560      0.0001      0.2934
      2        -0.2934      0.0002      0.9560
      3        -0.0000      1.0000     -0.0003




 Task  times  cpu:      101.6s     wall:       83.9s


                                NWChem Input Module
                                -------------------


 Summary of allocated global arrays
-----------------------------------
  array 0 => double precision sf 1(75,75),  handle: -987 
  array 1 => double precision sf 1(75,75),  handle: -986 
  array 2 => double precision sf 1(75,75),  handle: -985 
  array 3 => double precision sf 1(75,75),  handle: -984 
  array 4 => double precision sf 1(75,75),  handle: -983 
  array 5 => double precision sf 1(75,75),  handle: -982 
  array 6 => double precision sf 1(75,75),  handle: -981 
  array 7 => double precision sf 1(75,75),  handle: -980 
  array 8 => double precision sf 1(75,75),  handle: -979 
  array 9 => double precision sf 1(75,75),  handle: -978 
  array 10 => double precision sf 1(75,75),  handle: -977 
  array 11 => double precision sf 1(75,75),  handle: -976 
  array 12 => double precision sf 1(75,75),  handle: -975 
  array 13 => double precision sf 1(75,75),  handle: -974 
  array 14 => double precision sf 1(75,75),  handle: -973 
  array 15 => double precision sf 1(75,75),  handle: -972 
  array 16 => double precision sf 1(75,75),  handle: -971 
  array 17 => double precision sf 1(75,75),  handle: -970 
  array 18 => double precision sf 1(75,75),  handle: -969 
  array 19 => double precision sf 1(75,75),  handle: -968 
  array 20 => double precision sf 1(75,75),  handle: -967 
  array 21 => double precision sf 1(75,75),  handle: -966 
  array 22 => double precision sf 1(75,75),  handle: -965 
  array 23 => double precision sf 1(75,75),  handle: -964 
  array 24 => double precision sf 1(75,75),  handle: -963 
  array 25 => double precision sf 1(75,75),  handle: -962 
  array 26 => double precision sf 1(75,75),  handle: -961 
  array 27 => double precision sf 1(75,75),  handle: -960 
  array 28 => double precision sf 1(75,75),  handle: -959 
  array 29 => double precision sf 1(75,75),  handle: -958 
  array 30 => double precision sf 1(75,75),  handle: -957 
  array 31 => double precision sf 1(75,75),  handle: -956 
  array 32 => double precision sf 1(75,75),  handle: -955 
  array 33 => double precision sf 1(75,75),  handle: -954 
  array 34 => double precision sf 1(75,75),  handle: -953 
  array 35 => double precision sf 1(75,75),  handle: -952 
  array 36 => double precision sf 1(75,75),  handle: -951 
  array 37 => double precision sf 1(75,75),  handle: -950 
  array 38 => double precision sf 1(75,75),  handle: -949 
  array 39 => double precision sf 1(75,75),  handle: -948 
  array 40 => double precision sf 1(75,75),  handle: -947 
  array 41 => double precision sf 1(75,75),  handle: -946 
  array 42 => double precision sf 1(75,75),  handle: -945 
  array 43 => double precision sf 1(75,75),  handle: -944 
  array 44 => double precision sf 1(75,75),  handle: -943 
  array 45 => double precision sf 1(75,75),  handle: -942 
  array 46 => double precision sf 1(75,75),  handle: -941 
  array 47 => double precision sf 1(75,75),  handle: -940 
  array 48 => double precision sf 1(75,75),  handle: -939 
  array 49 => double precision sf 1(75,75),  handle: -938 
  array 50 => double precision sf 1(75,75),  handle: -937 
  array 51 => double precision sf 1(75,75),  handle: -936 
  array 52 => double precision sf 1(75,75),  handle: -935 
  array 53 => double precision sf 1(75,75),  handle: -934 
  array 54 => double precision sf 1(75,75),  handle: -933 
  array 55 => double precision sf 1(75,75),  handle: -932 
  array 56 => double precision sf 1(75,75),  handle: -931 



                         GA Statistics for process    0
                         ------------------------------

       create   destroy   get      put      acc     scatter   gather  read&inc
calls: 8660     8298     3.02e+05 5.34e+04 7.46e+04   60        0     1.02e+04 
number of processes/call 0.00e+00 0.00e+00 0.00e+00 0.00e+00 0.00e+00
bytes total:             4.04e+08 5.82e+07 3.38e+08 4.48e+02 0.00e+00 8.17e+04
bytes remote:            3.58e+08 4.99e+07 3.10e+08 -2.24e+02 0.00e+00 0.00e+00
Max memory consumed for GA by this process: 660432 bytes

MA_summarize_allocated_blocks: starting scan ...
MA_summarize_allocated_blocks: scan completed: 0 heap blocks, 0 stack blocks
MA usage statistics:

	allocation statistics:
					      heap	     stack
					      ----	     -----
	current number of blocks	         0	         0
	maximum number of blocks	        66	        59
	current total bytes		         0	         0
	maximum total bytes		   2300808	  24872344
	maximum total K-bytes		      2301	     24873
	maximum total M-bytes		         3	        25


                                     CITATION
                                     --------
                Please cite the following reference when publishing
                           results obtained with NWChem:

          E. Apr, E. J. Bylaska, W. A. de Jong, N. Govind, K. Kowalski,
       T. P. Straatsma, M. Valiev, H. J. J. van Dam, Y. Alexeev, J. Anchell,
       V. Anisimov, F. W. Aquino, R. Atta-Fynn, J. Autschbach, N. P. Bauman,
     J. C. Becca, D. E. Bernholdt, K. Bhaskaran-Nair, S. Bogatko, P. Borowski,
        J. Boschen, J. Brabec, A. Bruner, E. Caut, Y. Chen, G. N. Chuev,
      C. J. Cramer, J. Daily, M. J. O. Deegan, T. H. Dunning Jr., M. Dupuis,
   K. G. Dyall, G. I. Fann, S. A. Fischer, A. Fonari, H. Frchtl, L. Gagliardi,
      J. Garza, N. Gawande, S. Ghosh, K. Glaesemann, A. W. Gtz, J. Hammond,
       V. Helms, E. D. Hermes, K. Hirao, S. Hirata, M. Jacquelin, L. Jensen,
   B. G. Johnson, H. Jnsson, R. A. Kendall, M. Klemm, R. Kobayashi, V. Konkov,
      S. Krishnamoorthy, M. Krishnan, Z. Lin, R. D. Lins, R. J. Littlefield,
      A. J. Logsdail, K. Lopata, W. Ma, A. V. Marenich, J. Martin del Campo,
   D. Mejia-Rodriguez, J. E. Moore, J. M. Mullin, T. Nakajima, D. R. Nascimento,
    J. A. Nichols, P. J. Nichols, J. Nieplocha, A. Otero-de-la-Roza, B. Palmer,
    A. Panyala, T. Pirojsirikul, B. Peng, R. Peverati, J. Pittner, L. Pollack,
   R. M. Richard, P. Sadayappan, G. C. Schatz, W. A. Shelton, D. W. Silverstein,
   D. M. A. Smith, T. A. Soares, D. Song, M. Swart, H. L. Taylor, G. S. Thomas,
            V. Tipparaju, D. G. Truhlar, K. Tsemekhman, T. Van Voorhis,
     . Vzquez-Mayagoitia, P. Verma, O. Villa, A. Vishnu, K. D. Vogiatzis,
        D. Wang, J. H. Weare, M. J. Williamson, T. L. Windus, K. Woliski,
        A. T. Wong, Q. Wu, C. Yang, Q. Yu, M. Zacharias, Z. Zhang, Y. Zhao,
                                and R. J. Harrison
                        "NWChem: Past, present, and future
                         J. Chem. Phys. 152, 184102 (2020)
                               doi:10.1063/5.0004997

                                      AUTHORS
                                      -------
     E. Apra, E. J. Bylaska, N. Govind, K. Kowalski, M. Valiev, W. A. de Jong,
      T. P. Straatsma, H. J. J. van Dam, D. Wang, T. L. Windus, N. P. Bauman,
       A. Panyala, J. Hammond, J. Autschbach, K. Bhaskaran-Nair, J. Brabec,
    K. Lopata, S. A. Fischer, S. Krishnamoorthy, M. Jacquelin, W. Ma, M. Klemm,
       O. Villa, Y. Chen, V. Anisimov, F. Aquino, S. Hirata, M. T. Hackler,
           Eric Hermes, L. Jensen, J. E. Moore, J. C. Becca, V. Konjkov,
            D. Mejia-Rodriguez, T. Risthaus, M. Malagoli, A. Marenich,
   A. Otero-de-la-Roza, J. Mullin, P. Nichols, R. Peverati, J. Pittner, Y. Zhao,
        P.-D. Fan, A. Fonari, M. J. Williamson, R. J. Harrison, J. R. Rehr,
      M. Dupuis, D. Silverstein, D. M. A. Smith, J. Nieplocha, V. Tipparaju,
      M. Krishnan, B. E. Van Kuiken, A. Vazquez-Mayagoitia, M. Swart, Q. Wu,
   T. Van Voorhis, A. A. Auer, M. Nooijen, L. D. Crosby, E. Brown, G. Cisneros,
     G. I. Fann, H. Fruchtl, J. Garza, K. Hirao, R. A. Kendall, J. A. Nichols,
       K. Tsemekhman, K. Wolinski, J. Anchell, D. E. Bernholdt, P. Borowski,
       T. Clark, D. Clerc, H. Dachsel, M. J. O. Deegan, K. Dyall, D. Elwood,
      E. Glendening, M. Gutowski, A. C. Hess, J. Jaffe, B. G. Johnson, J. Ju,
        R. Kobayashi, R. Kutteh, Z. Lin, R. Littlefield, X. Long, B. Meng,
      T. Nakajima, S. Niu, L. Pollack, M. Rosing, K. Glaesemann, G. Sandrone,
      M. Stave, H. Taylor, G. Thomas, J. H. van Lenthe, A. T. Wong, Z. Zhang.

 Total times  cpu:     1206.3s     wall:     1065.1s
