 argument  1 = CC(=C)Cl_mol_8_conformer_0.nw



============================== echo of input deck ==============================
start

title "Molecule conformer 0"

memory total 4000 mb

echo
geometry units angstroms
   C     -1.1282    -0.1449    -0.0514
   C      0.2420     0.4482     0.0850
   C      1.3305    -0.3188    -0.0263
   Cl     0.4199     2.1708     0.3945
   H     -1.2831    -0.9209     0.7278
   H     -1.9029     0.6408     0.0704
   H     -1.2426    -0.6045    -1.0558
   H      1.2432    -1.3843    -0.2172
   H      2.3211     0.1135     0.0729
end


basis spherical
* library 6-311G
end

driver
  maxiter 500
  xyz final
end

relativistic
  zora on
  zora:cutoff_NMR 1d-8
  zora:cutoff 1d-30
end

dft
  direct
  grid fine
  xc B3LYP
  mult 1
  maxiter 1500
  noprint "final vectors analysis" multipole
end

task dft optimize

task dft freq

property
  shielding 5 5 6 7 8 9
end

cosmo
   solvent cdcl3
end

task dft property
================================================================================


                                         
                                         


             Northwest Computational Chemistry Package (NWChem) 7.0.2
             --------------------------------------------------------


                    Environmental Molecular Sciences Laboratory
                       Pacific Northwest National Laboratory
                                Richland, WA 99352

                              Copyright (c) 1994-2020
                       Pacific Northwest National Laboratory
                            Battelle Memorial Institute

             NWChem is an open-source computational chemistry package
                        distributed under the terms of the
                      Educational Community License (ECL) 2.0
             A copy of the license is included with this distribution
                              in the LICENSE.TXT file

                                  ACKNOWLEDGMENT
                                  --------------

            This software and its documentation were developed at the
            EMSL at Pacific Northwest National Laboratory, a multiprogram
            national laboratory, operated for the U.S. Department of Energy
            by Battelle under Contract Number DE-AC05-76RL01830. Support
            for this work was provided by the Department of Energy Office
            of Biological and Environmental Research, Office of Basic
            Energy Sciences, and the Office of Advanced Scientific Computing.


           Job information
           ---------------

    hostname        = ponder
    program         = nwchem
    date            = Tue Aug  6 13:22:34 2024

    compiled        = Sat_Apr_09_17:12:10_2022
    source          = /build/nwchem-f1f4gx/nwchem-7.0.2/build-openmpi
    nwchem branch   = 7.0.2
    nwchem revision = N/A
    ga revision     = 5.8.1
    use scalapack   = T
    input           = CC(=C)Cl_mol_8_conformer_0.nw
    prefix          = CC(=C)Cl_mol_8_conformer_0.
    data base       = ./CC(=C)Cl_mol_8_conformer_0.db
    status          = startup
    nproc           =       40
    time left       =     -1s



           Memory information
           ------------------

    heap     =  131071994 doubles =   1000.0 Mbytes
    stack    =  131071999 doubles =   1000.0 Mbytes
    global   =  262144000 doubles =   2000.0 Mbytes (distinct from heap & stack)
    total    =  524287993 doubles =   4000.0 Mbytes
    verify   = yes
    hardfail = no 


           Directory information
           ---------------------

  0 permanent = .
  0 scratch   = .




                                NWChem Input Module
                                -------------------


                               Molecule conformer 0
                               --------------------

 Scaling coordinates for geometry "geometry" by  1.889725989
 (inverse scale =  0.529177249)

 CS  symmetry detected

          ------
          auto-z
          ------
  no constraints, skipping    0.0000000000000000     
  no constraints, skipping    0.0000000000000000     


                             Geometry "geometry" -> ""
                             -------------------------

 Output coordinates in angstroms (scale by  1.889725989 to convert to a.u.)

  No.       Tag          Charge          X              Y              Z
 ---- ---------------- ---------- -------------- -------------- --------------
    1 C                    6.0000    -1.11610229    -1.28383352     0.00000000
    2 C                    6.0000     0.10374577    -0.41217342     0.00000000
    3 C                    6.0000     1.32634701    -0.95139056     0.00000000
    4 Cl                  17.0000    -0.07484611     1.33793925     0.00000000
    5 H                    1.0000    -1.12140446    -1.92606254     0.90594952
    6 H                    1.0000    -2.03535225    -0.66149975     0.00000000
    7 H                    1.0000    -1.12140446    -1.92606254    -0.90594952
    8 H                    1.0000     1.45907221    -2.02923024     0.00000000
    9 H                    1.0000     2.20752979    -0.31772724     0.00000000

      Atomic Mass 
      ----------- 

      C                 12.000000
      Cl                34.968850
      H                  1.007825


 Effective nuclear repulsion energy (a.u.)     147.8109161382

            Nuclear Dipole moment (a.u.) 
            ----------------------------
        X                 Y               Z
 ---------------- ---------------- ----------------
     0.0000000000    -0.0000000000     0.0000000000

      Symmetry information
      --------------------

 Group name             Cs        
 Group number              2
 Group order               2
 No. of unique centers     8

      Symmetry unique atoms

     1    2    3    4    5    6    8    9



                                Z-matrix (autoz)
                                -------- 

 Units are Angstrom for bonds and degrees for angles

      Type          Name      I     J     K     L     M      Value
      ----------- --------  ----- ----- ----- ----- ----- ----------
    1 Stretch                  1     2                       1.49927
    2 Stretch                  1     5                       1.11051
    3 Stretch                  1     6                       1.11010
    4 Stretch                  1     7                       1.11051
    5 Stretch                  2     3                       1.33623
    6 Stretch                  2     4                       1.75920
    7 Stretch                  3     8                       1.08598
    8 Stretch                  3     9                       1.08536
    9 Bend                     1     2     3               120.65231
   10 Bend                     1     2     4               119.72162
   11 Bend                     2     1     5               109.88375
   12 Bend                     2     1     6               110.35368
   13 Bend                     2     1     7               109.88375
   14 Bend                     2     3     8               120.81950
   15 Bend                     2     3     9               120.48044
   16 Bend                     3     2     4               119.62607
   17 Bend                     5     1     6               108.67856
   18 Bend                     5     1     7               109.33238
   19 Bend                     6     1     7               108.67856
   20 Bend                     8     3     9               118.70005
   21 Torsion                  1     2     3     8           0.00000
   22 Torsion                  1     2     3     9         180.00000
   23 Torsion                  3     2     1     5          60.17098
   24 Torsion                  3     2     1     6         180.00000
   25 Torsion                  3     2     1     7         -60.17098
   26 Torsion                  4     2     1     5        -119.82902
   27 Torsion                  4     2     1     6           0.00000
   28 Torsion                  4     2     1     7         119.82902
   29 Torsion                  4     2     3     8         180.00000
   30 Torsion                  4     2     3     9           0.00000


            XYZ format geometry
            -------------------
     9
 geometry
 C                    -1.11610229    -1.28383352     0.00000000
 C                     0.10374577    -0.41217342     0.00000000
 C                     1.32634701    -0.95139056     0.00000000
 Cl                   -0.07484611     1.33793925     0.00000000
 H                    -1.12140446    -1.92606254     0.90594952
 H                    -2.03535225    -0.66149975     0.00000000
 H                    -1.12140446    -1.92606254    -0.90594952
 H                     1.45907221    -2.02923024     0.00000000
 H                     2.20752979    -0.31772724     0.00000000

 ==============================================================================
                                internuclear distances
 ------------------------------------------------------------------------------
       center one      |      center two      | atomic units |  angstroms
 ------------------------------------------------------------------------------
    2 C                |   1 C                |     2.83322  |     1.49927
    3 C                |   2 C                |     2.52511  |     1.33623
    4 Cl               |   2 C                |     3.32441  |     1.75920
    5 H                |   1 C                |     2.09856  |     1.11051
    6 H                |   1 C                |     2.09778  |     1.11010
    7 H                |   1 C                |     2.09856  |     1.11051
    8 H                |   3 C                |     2.05221  |     1.08598
    9 H                |   3 C                |     2.05104  |     1.08536
 ------------------------------------------------------------------------------
                         number of included internuclear distances:          8
 ==============================================================================



 ==============================================================================
                                 internuclear angles
 ------------------------------------------------------------------------------
        center 1       |       center 2       |       center 3       |  degrees
 ------------------------------------------------------------------------------
    2 C                |   1 C                |   5 H                |   109.88
    2 C                |   1 C                |   6 H                |   110.35
    2 C                |   1 C                |   7 H                |   109.88
    5 H                |   1 C                |   6 H                |   108.68
    5 H                |   1 C                |   7 H                |   109.33
    6 H                |   1 C                |   7 H                |   108.68
    1 C                |   2 C                |   3 C                |   120.65
    1 C                |   2 C                |   4 Cl               |   119.72
    3 C                |   2 C                |   4 Cl               |   119.63
    2 C                |   3 C                |   8 H                |   120.82
    2 C                |   3 C                |   9 H                |   120.48
    8 H                |   3 C                |   9 H                |   118.70
 ------------------------------------------------------------------------------
                            number of included internuclear angles:         12
 ==============================================================================





 Summary of "ao basis" -> "" (spherical)
 ------------------------------------------------------------------------------
       Tag                 Description            Shells   Functions and Types
 ---------------- ------------------------------  ------  ---------------------
 *                           6-311G                   on all atoms 




                           NWChem Geometry Optimization
                           ----------------------------




                               Molecule conformer 0


  no constraints, skipping    0.0000000000000000     
 maximum gradient threshold         (gmax) =   0.000450
 rms gradient threshold             (grms) =   0.000300
 maximum cartesian step threshold   (xmax) =   0.001800
 rms cartesian step threshold       (xrms) =   0.001200
 fixed trust radius                (trust) =   0.300000
 maximum step size to saddle      (sadstp) =   0.100000
 energy precision                  (eprec) =   5.0D-06
 maximum number of steps          (nptopt) =  500
 initial hessian option           (inhess) =    0
 line search option               (linopt) =    1
 hessian update option            (modupd) =    1
 saddle point option              (modsad) =    0
 initial eigen-mode to follow     (moddir) =    0
 initial variable to follow       (vardir) =    0
 follow first negative mode     (firstneg) =    T
 apply conjugacy                    (opcg) =    F
 source of zmatrix                         =   autoz   


          -------------------
          Energy Minimization
          -------------------


 Names of Z-matrix variables 
    1              2              3              4              5         
    6              7              8              9             10         
   11             12             13             14             15         
   16             17             18             19             20         
   21             22             23             24             25         
   26             27             28             29             30         

 Variables with the same non-blank name are constrained to be equal


 Using diagonal initial Hessian 
 Scaling for Hessian diagonals: bonds = 1.00  angles = 0.25  torsions = 0.10

          --------
          Step   0
          --------


                         Geometry "geometry" -> "geometry"
                         ---------------------------------

 Output coordinates in angstroms (scale by  1.889725989 to convert to a.u.)

  No.       Tag          Charge          X              Y              Z
 ---- ---------------- ---------- -------------- -------------- --------------
    1 C                    6.0000    -1.11610229    -1.28383352     0.00000000
    2 C                    6.0000     0.10374577    -0.41217342     0.00000000
    3 C                    6.0000     1.32634701    -0.95139056     0.00000000
    4 Cl                  17.0000    -0.07484611     1.33793925     0.00000000
    5 H                    1.0000    -1.12140446    -1.92606254     0.90594952
    6 H                    1.0000    -2.03535225    -0.66149975     0.00000000
    7 H                    1.0000    -1.12140446    -1.92606254    -0.90594952
    8 H                    1.0000     1.45907221    -2.02923024     0.00000000
    9 H                    1.0000     2.20752979    -0.31772724     0.00000000

      Atomic Mass 
      ----------- 

      C                 12.000000
      Cl                34.968850
      H                  1.007825


 Effective nuclear repulsion energy (a.u.)     147.8109161382

            Nuclear Dipole moment (a.u.) 
            ----------------------------
        X                 Y               Z
 ---------------- ---------------- ----------------
     0.0000000000    -0.0000000000     0.0000000000

      Symmetry information
      --------------------

 Group name             Cs        
 Group number              2
 Group order               2
 No. of unique centers     8

      Symmetry unique atoms

     1    2    3    4    5    6    8    9


                                 NWChem DFT Module
                                 -----------------


                               Molecule conformer 0


                      Basis "ao basis" -> "ao basis" (spherical)
                      -----
  C (Carbon)
  ----------
            Exponent  Coefficients 
       -------------- ---------------------------------------------------------
  1 S  4.56324000E+03  0.001967
  1 S  6.82024000E+02  0.015231
  1 S  1.54973000E+02  0.076127
  1 S  4.44553000E+01  0.260801
  1 S  1.30290000E+01  0.616462
  1 S  1.82773000E+00  0.221006

  2 S  2.09642000E+01  0.114660
  2 S  4.80331000E+00  0.919999
  2 S  1.45933000E+00 -0.003031

  3 P  2.09642000E+01  0.040249
  3 P  4.80331000E+00  0.237594
  3 P  1.45933000E+00  0.815854

  4 S  4.83456000E-01  1.000000

  5 P  4.83456000E-01  1.000000

  6 S  1.45585000E-01  1.000000

  7 P  1.45585000E-01  1.000000

  Cl (Chlorine)
  -------------
            Exponent  Coefficients 
       -------------- ---------------------------------------------------------
  1 S  1.05819000E+05  0.000738
  1 S  1.58720000E+04  0.005718
  1 S  3.61965000E+03  0.029495
  1 S  1.03080000E+03  0.117286
  1 S  3.39908000E+02  0.362949
  1 S  1.24538000E+02  0.584149

  2 S  1.24538000E+02  0.134177
  2 S  4.95135000E+01  0.624250
  2 S  2.08056000E+01  0.291756

  3 S  6.58346000E+00  1.000000

  4 S  2.56468000E+00  1.000000

  5 S  5.59763000E-01  1.000000

  6 S  1.83273000E-01  1.000000

  7 P  5.89776000E+02  0.002391
  7 P  1.39849000E+02  0.018504
  7 P  4.51413000E+01  0.081377
  7 P  1.68733000E+01  0.221552
  7 P  6.74110000E+00  0.772569

  8 P  6.74110000E+00 -1.572244
  8 P  2.77152000E+00  0.992389

  9 P  1.02387000E+00  1.000000

 10 P  3.81368000E-01  1.000000

 11 P  1.09437000E-01  1.000000

  H (Hydrogen)
  ------------
            Exponent  Coefficients 
       -------------- ---------------------------------------------------------
  1 S  3.38650000E+01  0.025494
  1 S  5.09479000E+00  0.190373
  1 S  1.15879000E+00  0.852161

  2 S  3.25840000E-01  1.000000

  3 S  1.02741000E-01  1.000000



 Summary of "ao basis" -> "ao basis" (spherical)
 ------------------------------------------------------------------------------
       Tag                 Description            Shells   Functions and Types
 ---------------- ------------------------------  ------  ---------------------
 C                           6-311G                  7       13   4s3p
 Cl                          6-311G                 11       21   6s5p
 H                           6-311G                  3        3   3s




 Summary of "ao basis" -> "ao basis" (spherical)
 ------------------------------------------------------------------------------
       Tag                 Description            Shells   Functions and Types
 ---------------- ------------------------------  ------  ---------------------
 C                           6-311G                  7       13   4s3p
 Cl                          6-311G                 11       21   6s5p
 H                           6-311G                  3        3   3s


      Symmetry analysis of basis
      --------------------------

        a'         58
        a"         17

  Caching 1-el integrals 

            General Information
            -------------------
          SCF calculation type: DFT
          Wavefunction type:  closed shell.
          No. of atoms     :     9
          No. of electrons :    40
           Alpha electrons :    20
            Beta electrons :    20
          Charge           :     0
          Spin multiplicity:     1
          Use of symmetry is: on ; symmetry adaption is: on 
          Maximum number of iterations: ***
          This is a Direct SCF calculation.
          AO basis - number of functions:    75
                     number of shells:    47
          Convergence on energy requested:  1.00D-06
          Convergence on density requested:  1.00D-05
          Convergence on gradient requested:  5.00D-04

              XC Information
              --------------
                         B3LYP Method XC Potential
                     Hartree-Fock (Exact) Exchange  0.200          
                        Slater Exchange Functional  0.800 local    
                    Becke 1988 Exchange Functional  0.720 non-local
              Lee-Yang-Parr Correlation Functional  0.810          
                  VWN I RPA Correlation Functional  0.190 local    

             Grid Information
             ----------------
          Grid used for XC integration:  fine      
          Radial quadrature: Mura-Knowles        
          Angular quadrature: Lebedev. 
          Tag              B.-S. Rad. Rad. Pts. Rad. Cut. Ang. Pts.
          ---              ---------- --------- --------- ---------
          C                   0.70       70          11.0       590
          Cl                  1.00      123          11.0       770
          H                   0.35       60          12.0       590
          Grid pruning is: on 
          Number of quadrature shells:   573
          Spatial weights used:  Erf1

          Convergence Information
          -----------------------
          Convergence aids based upon iterative change in 
          total energy or number of iterations. 
          Levelshifting, if invoked, occurs when the 
          HOMO/LUMO gap drops below (HL_TOL):  1.00D-02
          DIIS, if invoked, will attempt to extrapolate 
          using up to (NFOCK): 10 stored Fock matrices.

                    Damping( 0%)  Levelshifting(0.5)       DIIS
                  --------------- ------------------- ---------------
          dE  on:    start            ASAP                start   
          dE off:    2 iters        *** iters           *** iters 


      Screening Tolerance Information
      -------------------------------
          Density screening/tol_rho:  1.00D-10
          AO Gaussian exp screening on grid/accAOfunc:  14
          CD Gaussian exp screening on grid/accCDfunc:  20
          XC Gaussian exp screening on grid/accXCfunc:  20
          Schwarz screening/accCoul:  1.00D-08

          Performing ZORA calculations
          ----------------------------


      Superposition of Atomic Density Guess
      -------------------------------------

 Sum of atomic energies:        -574.98156165

 Read atomic ZORA corrections from ./CC(=C)Cl_mol_8_conformer_0.zora_sf

 dft_zora_read: failed to open./CC(=C)Cl_mol_8_conformer_0.zora_sf
 Forcing recalculation of ZORA corrections
       Generating atomic ZORA corrections
       ----------------------------------

 In dft_scf:: zora:Knucl= F

 Grid_pts file          = ./CC(=C)Cl_mol_8_conformer_0.gridpts.00
 Record size in doubles =  12289        No. of grid_pts per rec  =   3070
 Max. records in memory =      5        Max. recs in file   =     13476


 Wrote atomic ZORA corrections to ./CC(=C)Cl_mol_8_conformer_0.zora_sf


      Superposition of Atomic Density Guess
      -------------------------------------

 Sum of atomic energies:        -574.98156165

      Non-variational initial energy
      ------------------------------

 Total energy =    -577.070950
 1-e energy   =   -1082.060838
 2-e energy   =     357.178972
 HOMO         =      -0.276800
 LUMO         =       0.026828


      Symmetry analysis of molecular orbitals - initial
      -------------------------------------------------

  Numbering of irreducible representations: 

     1 a'          2 a"      

  Orbital symmetries:

     1 a'          2 a'          3 a'          4 a'          5 a'      
     6 a'          7 a'          8 a"          9 a'         10 a'      
    11 a'         12 a'         13 a'         14 a'         15 a"      
    16 a'         17 a"         18 a'         19 a'         20 a"      
    21 a"         22 a'         23 a'         24 a'         25 a'      
    26 a'         27 a"         28 a'         29 a'         30 a"      

   Time after variat. SCF:      7.0
   Time prior to 1st pass:      7.0

           Memory utilization after 1st SCF pass: 
           Heap Space remaining (MW):      131.01           131006386
          Stack Space remaining (MW):      131.06           131060060

   convergence    iter        energy       DeltaE   RMS-Dens  Diis-err    time
 ---------------- ----- ----------------- --------- --------- ---------  ------
 d= 0,ls=0.0,diis     1   -579.6365720549 -7.27D+02  1.48D-02  3.77D+01     9.1
 d= 0,ls=0.0,diis     2   -579.6387498344 -2.18D-03  2.10D-02  8.01D-01    10.5
 d= 0,ls=0.0,diis     3   -579.4782014239  1.61D-01  1.30D-02  1.80D+00    12.5
 d= 0,ls=0.0,diis     4   -579.7334848139 -2.55D-01  1.49D-03  1.33D-02    14.4
 d= 0,ls=0.0,diis     5   -579.7348844233 -1.40D-03  7.51D-04  3.04D-03    16.8
  Resetting Diis
 d= 0,ls=0.0,diis     6   -579.7352915097 -4.07D-04  9.45D-05  6.32D-05    19.3
 d= 0,ls=0.0,diis     7   -579.7352974429 -5.93D-06  5.21D-05  4.17D-06    21.6
 d= 0,ls=0.0,diis     8   -579.7352971366  3.06D-07  2.59D-05  6.78D-06    24.0
 d= 0,ls=0.0,diis     9   -579.7352979932 -8.57D-07  4.06D-06  2.30D-07    26.8
(nogshift,skip_gshiftAOev,done_Fji)=( 1,F,F)


         Total DFT energy =     -579.735297993199
      One electron energy =    -1087.839012115417
           Coulomb energy =      406.775305517735
    Exchange-Corr. energy =      -46.482507533725
 Nuclear repulsion energy =      147.810916138208

       Scaling correction =        0.810184848126

 Numeric. integr. density =       40.000000526318

     Total iterative time =     20.0s



                  Occupations of the irreducible representations
                  ----------------------------------------------

                     irrep           alpha         beta
                     --------     --------     --------
                     a'               16.0         16.0
                     a"                4.0          4.0


 center of mass
 --------------
 x =   0.01328286 y =   0.20146246 z =   0.00000000

 moments of inertia (a.u.)
 ------------------
         386.520924211729          -0.000000013400           0.000000000000
          -0.000000013400         184.984420344301           0.000000000000
           0.000000000000           0.000000000000         559.689880273576

            General Information
            -------------------
          SCF calculation type: DFT
          Wavefunction type:  closed shell.
          No. of atoms     :     9
          No. of electrons :    40
           Alpha electrons :    20
            Beta electrons :    20
          Charge           :     0
          Spin multiplicity:     1
          Use of symmetry is: on ; symmetry adaption is: on 
          Maximum number of iterations: ***
          This is a Direct SCF calculation.
          AO basis - number of functions:    75
                     number of shells:    47
          Convergence on energy requested:  1.00D-06
          Convergence on density requested:  1.00D-05
          Convergence on gradient requested:  5.00D-04

              XC Information
              --------------
                         B3LYP Method XC Potential
                     Hartree-Fock (Exact) Exchange  0.200          
                        Slater Exchange Functional  0.800 local    
                    Becke 1988 Exchange Functional  0.720 non-local
              Lee-Yang-Parr Correlation Functional  0.810          
                  VWN I RPA Correlation Functional  0.190 local    

             Grid Information
             ----------------
          Grid used for XC integration:  fine      
          Radial quadrature: Mura-Knowles        
          Angular quadrature: Lebedev. 
          Tag              B.-S. Rad. Rad. Pts. Rad. Cut. Ang. Pts.
          ---              ---------- --------- --------- ---------
          C                   0.70       70          11.0       590
          Cl                  1.00      123          11.0       770
          H                   0.35       60          12.0       590
          Grid pruning is: on 
          Number of quadrature shells:   573
          Spatial weights used:  Erf1

          Convergence Information
          -----------------------
          Convergence aids based upon iterative change in 
          total energy or number of iterations. 
          Levelshifting, if invoked, occurs when the 
          HOMO/LUMO gap drops below (HL_TOL):  1.00D-02
          DIIS, if invoked, will attempt to extrapolate 
          using up to (NFOCK): 10 stored Fock matrices.

                    Damping( 0%)  Levelshifting(0.5)       DIIS
                  --------------- ------------------- ---------------
          dE  on:    start            ASAP                start   
          dE off:    2 iters        *** iters           *** iters 


      Screening Tolerance Information
      -------------------------------
          Density screening/tol_rho:  1.00D-10
          AO Gaussian exp screening on grid/accAOfunc:  14
          CD Gaussian exp screening on grid/accCDfunc:  20
          XC Gaussian exp screening on grid/accXCfunc:  20
          Schwarz screening/accCoul:  1.00D-08



                            NWChem DFT Gradient Module
                            --------------------------


                               Molecule conformer 0



  charge          =   0.00
  wavefunction    = closed shell

  Using symmetry


                         DFT ENERGY GRADIENTS

    atom               coordinates                        gradient
                 x          y          z           x          y          z
   1 C      -2.109127  -2.426094   0.000000    0.019164  -0.004725   0.000000
   2 C       0.196051  -0.778895   0.000000   -0.021368   0.044586   0.000000
   3 C       2.506432  -1.797867   0.000000   -0.002250  -0.012961   0.000000
   4 Cl     -0.141439   2.528339   0.000000    0.007623  -0.027446   0.000000
   5 H      -2.119147  -3.639730   1.711996    0.002275  -0.006191   0.010840
   6 H      -3.846258  -1.250053   0.000000   -0.008475   0.011150   0.000000
   7 H      -2.119147  -3.639730  -1.711996    0.002275  -0.006191  -0.010840
   8 H       2.757247  -3.834689   0.000000    0.000467  -0.003296   0.000000
   9 H       4.171626  -0.600417   0.000000    0.000291   0.005074   0.000000

                 ----------------------------------------
                 |  Time  |  1-e(secs)   |  2-e(secs)   |
                 ----------------------------------------
                 |  CPU   |       0.00   |       0.10   |
                 ----------------------------------------
                 |  WALL  |       0.00   |       0.10   |
                 ----------------------------------------
  no constraints, skipping    0.0000000000000000     

@ Step       Energy      Delta E   Gmax     Grms     Xrms     Xmax   Walltime
@ ---- ---------------- -------- -------- -------- -------- -------- --------
@    0    -579.73529799  0.0D+00  0.02808  0.00728  0.00000  0.00000     29.1
                                                                    



                                Z-matrix (autoz)
                                -------- 

 Units are Angstrom for bonds and degrees for angles

      Type          Name      I     J     K     L     M      Value     Gradient
      ----------- --------  ----- ----- ----- ----- ----- ---------- ----------
    1 Stretch                  1     2                       1.49927   -0.00893
    2 Stretch                  1     5                       1.11051    0.01241
    3 Stretch                  1     6                       1.11010    0.01327
    4 Stretch                  1     7                       1.11051    0.01241
    5 Stretch                  2     3                       1.33623    0.00315
    6 Stretch                  2     4                       1.75920   -0.02808
    7 Stretch                  3     8                       1.08598    0.00333
    8 Stretch                  3     9                       1.08536    0.00320
    9 Bend                     1     2     3               120.65231   -0.00956
   10 Bend                     1     2     4               119.72162    0.00900
   11 Bend                     2     1     5               109.88375   -0.00117
   12 Bend                     2     1     6               110.35368   -0.00296
   13 Bend                     2     1     7               109.88375   -0.00117
   14 Bend                     2     3     8               120.81950    0.00147
   15 Bend                     2     3     9               120.48044   -0.00288
   16 Bend                     3     2     4               119.62607    0.00056
   17 Bend                     5     1     6               108.67856    0.00198
   18 Bend                     5     1     7               109.33238    0.00144
   19 Bend                     6     1     7               108.67856    0.00198
   20 Bend                     8     3     9               118.70005    0.00141
   21 Torsion                  1     2     3     8           0.00000    0.00000
   22 Torsion                  1     2     3     9         180.00000    0.00000
   23 Torsion                  3     2     1     5          60.17098    0.00015
   24 Torsion                  3     2     1     6         180.00000    0.00000
   25 Torsion                  3     2     1     7         -60.17098   -0.00015
   26 Torsion                  4     2     1     5        -119.82902    0.00015
   27 Torsion                  4     2     1     6           0.00000   -0.00000
   28 Torsion                  4     2     1     7         119.82902   -0.00015
   29 Torsion                  4     2     3     8         180.00000   -0.00000
   30 Torsion                  4     2     3     9           0.00000    0.00000

  no constraints, skipping    0.0000000000000000     
  no constraints, skipping    0.0000000000000000     
  no constraints, skipping    0.0000000000000000     
  no constraints, skipping    0.0000000000000000     
  no constraints, skipping    0.0000000000000000     
  no constraints, skipping    0.0000000000000000     
  no constraints, skipping    0.0000000000000000     
  no constraints, skipping    0.0000000000000000     

                                 NWChem DFT Module
                                 -----------------


                               Molecule conformer 0




 Summary of "ao basis" -> "ao basis" (spherical)
 ------------------------------------------------------------------------------
       Tag                 Description            Shells   Functions and Types
 ---------------- ------------------------------  ------  ---------------------
 C                           6-311G                  7       13   4s3p
 Cl                          6-311G                 11       21   6s5p
 H                           6-311G                  3        3   3s


      Symmetry analysis of basis
      --------------------------

        a'         58
        a"         17

  Caching 1-el integrals 

            General Information
            -------------------
          SCF calculation type: DFT
          Wavefunction type:  closed shell.
          No. of atoms     :     9
          No. of electrons :    40
           Alpha electrons :    20
            Beta electrons :    20
          Charge           :     0
          Spin multiplicity:     1
          Use of symmetry is: on ; symmetry adaption is: on 
          Maximum number of iterations: ***
          This is a Direct SCF calculation.
          AO basis - number of functions:    75
                     number of shells:    47
          Convergence on energy requested:  1.00D-06
          Convergence on density requested:  1.00D-05
          Convergence on gradient requested:  5.00D-04

              XC Information
              --------------
                         B3LYP Method XC Potential
                     Hartree-Fock (Exact) Exchange  0.200          
                        Slater Exchange Functional  0.800 local    
                    Becke 1988 Exchange Functional  0.720 non-local
              Lee-Yang-Parr Correlation Functional  0.810          
                  VWN I RPA Correlation Functional  0.190 local    

             Grid Information
             ----------------
          Grid used for XC integration:  fine      
          Radial quadrature: Mura-Knowles        
          Angular quadrature: Lebedev. 
          Tag              B.-S. Rad. Rad. Pts. Rad. Cut. Ang. Pts.
          ---              ---------- --------- --------- ---------
          C                   0.70       70          11.0       590
          Cl                  1.00      123          11.0       770
          H                   0.35       60          12.0       590
          Grid pruning is: on 
          Number of quadrature shells:   573
          Spatial weights used:  Erf1

          Convergence Information
          -----------------------
          Convergence aids based upon iterative change in 
          total energy or number of iterations. 
          Levelshifting, if invoked, occurs when the 
          HOMO/LUMO gap drops below (HL_TOL):  1.00D-02
          DIIS, if invoked, will attempt to extrapolate 
          using up to (NFOCK): 10 stored Fock matrices.

                    Damping( 0%)  Levelshifting(0.5)       DIIS
                  --------------- ------------------- ---------------
          dE  on:    start            ASAP                start   
          dE off:    2 iters        *** iters           *** iters 


      Screening Tolerance Information
      -------------------------------
          Density screening/tol_rho:  1.00D-10
          AO Gaussian exp screening on grid/accAOfunc:  14
          CD Gaussian exp screening on grid/accCDfunc:  20
          XC Gaussian exp screening on grid/accXCfunc:  20
          Schwarz screening/accCoul:  1.00D-08

          Performing ZORA calculations
          ----------------------------


      Superposition of Atomic Density Guess
      -------------------------------------

 Sum of atomic energies:        -574.98156165

 Read atomic ZORA corrections from ./CC(=C)Cl_mol_8_conformer_0.zora_sf

 Forcing recalculation of ZORA corrections
       Generating atomic ZORA corrections
       ----------------------------------

 In dft_scf:: zora:Knucl= F

 Grid_pts file          = ./CC(=C)Cl_mol_8_conformer_0.gridpts.00
 Record size in doubles =  12289        No. of grid_pts per rec  =   3070
 Max. records in memory =      5        Max. recs in file   =     13476


 Wrote atomic ZORA corrections to ./CC(=C)Cl_mol_8_conformer_0.zora_sf


 Loading old vectors from job with title :

Molecule conformer 0


      Symmetry analysis of molecular orbitals - initial
      -------------------------------------------------

  Numbering of irreducible representations: 

     1 a'          2 a"      

  Orbital symmetries:

     1 a'          2 a'          3 a'          4 a'          5 a'      
     6 a'          7 a"          8 a'          9 a'         10 a'      
    11 a'         12 a'         13 a'         14 a'         15 a"      
    16 a'         17 a'         18 a"         19 a'         20 a"      
    21 a"         22 a'         23 a'         24 a'         25 a'      
    26 a'         27 a"         28 a'         29 a'         30 a"      

   Time after variat. SCF:     35.7
   Time prior to 1st pass:     35.7

           Memory utilization after 1st SCF pass: 
           Heap Space remaining (MW):      131.01           131006386
          Stack Space remaining (MW):      131.06           131060060

   convergence    iter        energy       DeltaE   RMS-Dens  Diis-err    time
 ---------------- ----- ----------------- --------- --------- ---------  ------
 d= 0,ls=0.0,diis     1   -579.7378407857 -7.27D+02  2.03D-03  9.18D-03    38.4
 d= 0,ls=0.0,diis     2   -579.7395281682 -1.69D-03  5.75D-04  1.87D-03    40.8
 d= 0,ls=0.0,diis     3   -579.7395484882 -2.03D-05  3.72D-04  1.67D-03    43.2
 d= 0,ls=0.0,diis     4   -579.7397380112 -1.90D-04  1.08D-04  1.38D-04    45.9
 d= 0,ls=0.0,diis     5   -579.7397565542 -1.85D-05  1.61D-05  1.55D-06    48.6
 d= 0,ls=0.0,diis     6   -579.7397567490 -1.95D-07  3.74D-06  2.03D-08    51.3
(nogshift,skip_gshiftAOev,done_Fji)=( 1,F,F)


         Total DFT energy =     -579.739756749032
      One electron energy =    -1085.816058995643
           Coulomb energy =      405.786808624007
    Exchange-Corr. energy =      -46.487825025309
 Nuclear repulsion energy =      146.777318647913

       Scaling correction =        0.810131247213

 Numeric. integr. density =       40.000000528256

     Total iterative time =     15.7s



                  Occupations of the irreducible representations
                  ----------------------------------------------

                     irrep           alpha         beta
                     --------     --------     --------
                     a'               16.0         16.0
                     a"                4.0          4.0


 center of mass
 --------------
 x =  -0.00335900 y =   0.18606183 z =   0.00000000

 moments of inertia (a.u.)
 ------------------
         384.799498703304           6.400779278831           0.000000000000
           6.400779278831         194.460497485893           0.000000000000
           0.000000000000           0.000000000000         567.982429944787
 Line search: 
     step= 1.00 grad=-7.2D-03 hess= 2.7D-03 energy=   -579.739757 mode=downhill
 new step= 1.32                   predicted energy=   -579.740035
  no constraints, skipping    0.0000000000000000     
  no constraints, skipping    0.0000000000000000     
  no constraints, skipping    0.0000000000000000     
  no constraints, skipping    0.0000000000000000     
  no constraints, skipping    0.0000000000000000     
  no constraints, skipping    0.0000000000000000     
  no constraints, skipping    0.0000000000000000     
  no constraints, skipping    0.0000000000000000     

          --------
          Step   1
          --------


                         Geometry "geometry" -> "geometry"
                         ---------------------------------

 Output coordinates in angstroms (scale by  1.889725989 to convert to a.u.)

  No.       Tag          Charge          X              Y              Z
 ---- ---------------- ---------- -------------- -------------- --------------
    1 C                    6.0000    -1.14208751    -1.27903735     0.00000000
    2 C                    6.0000     0.13730573    -0.46710086     0.00000000
    3 C                    6.0000     1.37982130    -0.94741961     0.00000000
    4 Cl                  17.0000    -0.12126575     1.32795144     0.00000000
    5 H                    1.0000    -1.19517703    -1.91274732     0.87843272
    6 H                    1.0000    -2.02800514    -0.65736944     0.00000000
    7 H                    1.0000    -1.19517703    -1.91274732    -0.87843272
    8 H                    1.0000     1.54373698    -2.01422104     0.00000000
    9 H                    1.0000     2.24843366    -0.30734904     0.00000000

      Atomic Mass 
      ----------- 

      C                 12.000000
      Cl                34.968850
      H                  1.007825


 Effective nuclear repulsion energy (a.u.)     146.4759863366

            Nuclear Dipole moment (a.u.) 
            ----------------------------
        X                 Y               Z
 ---------------- ---------------- ----------------
    -0.8266968475    -0.7381395607     0.0000000000

      Symmetry information
      --------------------

 Group name             Cs        
 Group number              2
 Group order               2
 No. of unique centers     8

      Symmetry unique atoms

     1    2    3    4    5    6    8    9


                                 NWChem DFT Module
                                 -----------------


                               Molecule conformer 0




 Summary of "ao basis" -> "ao basis" (spherical)
 ------------------------------------------------------------------------------
       Tag                 Description            Shells   Functions and Types
 ---------------- ------------------------------  ------  ---------------------
 C                           6-311G                  7       13   4s3p
 Cl                          6-311G                 11       21   6s5p
 H                           6-311G                  3        3   3s


      Symmetry analysis of basis
      --------------------------

        a'         58
        a"         17

  Caching 1-el integrals 

            General Information
            -------------------
          SCF calculation type: DFT
          Wavefunction type:  closed shell.
          No. of atoms     :     9
          No. of electrons :    40
           Alpha electrons :    20
            Beta electrons :    20
          Charge           :     0
          Spin multiplicity:     1
          Use of symmetry is: on ; symmetry adaption is: on 
          Maximum number of iterations: ***
          This is a Direct SCF calculation.
          AO basis - number of functions:    75
                     number of shells:    47
          Convergence on energy requested:  1.00D-06
          Convergence on density requested:  1.00D-05
          Convergence on gradient requested:  5.00D-04

              XC Information
              --------------
                         B3LYP Method XC Potential
                     Hartree-Fock (Exact) Exchange  0.200          
                        Slater Exchange Functional  0.800 local    
                    Becke 1988 Exchange Functional  0.720 non-local
              Lee-Yang-Parr Correlation Functional  0.810          
                  VWN I RPA Correlation Functional  0.190 local    

             Grid Information
             ----------------
          Grid used for XC integration:  fine      
          Radial quadrature: Mura-Knowles        
          Angular quadrature: Lebedev. 
          Tag              B.-S. Rad. Rad. Pts. Rad. Cut. Ang. Pts.
          ---              ---------- --------- --------- ---------
          C                   0.70       70          11.0       590
          Cl                  1.00      123          11.0       770
          H                   0.35       60          12.0       590
          Grid pruning is: on 
          Number of quadrature shells:   573
          Spatial weights used:  Erf1

          Convergence Information
          -----------------------
          Convergence aids based upon iterative change in 
          total energy or number of iterations. 
          Levelshifting, if invoked, occurs when the 
          HOMO/LUMO gap drops below (HL_TOL):  1.00D-02
          DIIS, if invoked, will attempt to extrapolate 
          using up to (NFOCK): 10 stored Fock matrices.

                    Damping( 0%)  Levelshifting(0.5)       DIIS
                  --------------- ------------------- ---------------
          dE  on:    start            ASAP                start   
          dE off:    2 iters        *** iters           *** iters 


      Screening Tolerance Information
      -------------------------------
          Density screening/tol_rho:  1.00D-10
          AO Gaussian exp screening on grid/accAOfunc:  14
          CD Gaussian exp screening on grid/accCDfunc:  20
          XC Gaussian exp screening on grid/accXCfunc:  20
          Schwarz screening/accCoul:  1.00D-08

          Performing ZORA calculations
          ----------------------------


      Superposition of Atomic Density Guess
      -------------------------------------

 Sum of atomic energies:        -574.98156165

 Read atomic ZORA corrections from ./CC(=C)Cl_mol_8_conformer_0.zora_sf

 Forcing recalculation of ZORA corrections
       Generating atomic ZORA corrections
       ----------------------------------

 In dft_scf:: zora:Knucl= F

 Grid_pts file          = ./CC(=C)Cl_mol_8_conformer_0.gridpts.00
 Record size in doubles =  12289        No. of grid_pts per rec  =   3070
 Max. records in memory =      5        Max. recs in file   =     13476


 Wrote atomic ZORA corrections to ./CC(=C)Cl_mol_8_conformer_0.zora_sf


 Loading old vectors from job with title :

Molecule conformer 0


      Symmetry analysis of molecular orbitals - initial
      -------------------------------------------------

  Numbering of irreducible representations: 

     1 a'          2 a"      

  Orbital symmetries:

     1 a'          2 a'          3 a'          4 a'          5 a'      
     6 a'          7 a"          8 a'          9 a'         10 a'      
    11 a'         12 a'         13 a'         14 a'         15 a"      
    16 a'         17 a'         18 a"         19 a'         20 a"      
    21 a"         22 a'         23 a'         24 a'         25 a'      
    26 a"         27 a'         28 a'         29 a'         30 a"      

   Time after variat. SCF:     58.1
   Time prior to 1st pass:     58.1

           Memory utilization after 1st SCF pass: 
           Heap Space remaining (MW):      131.01           131006386
          Stack Space remaining (MW):      131.06           131060060

   convergence    iter        energy       DeltaE   RMS-Dens  Diis-err    time
 ---------------- ----- ----------------- --------- --------- ---------  ------
 d= 0,ls=0.0,diis     1   -579.7398788802 -7.26D+02  6.53D-04  9.10D-04    60.1
 d= 0,ls=0.0,diis     2   -579.7400480504 -1.69D-04  1.78D-04  1.78D-04    62.8
 d= 0,ls=0.0,diis     3   -579.7400501533 -2.10D-06  1.14D-04  1.59D-04    65.0
 d= 0,ls=0.0,diis     4   -579.7400680678 -1.79D-05  3.38D-05  1.34D-05    67.5
 d= 0,ls=0.0,diis     5   -579.7400698508 -1.78D-06  4.96D-06  1.57D-07    69.9
 d= 0,ls=0.0,diis     6   -579.7400698705 -1.97D-08  1.20D-06  1.98D-09    72.1
(nogshift,skip_gshiftAOev,done_Fji)=( 1,F,F)


         Total DFT energy =     -579.740069870532
      One electron energy =    -1085.224424681908
           Coulomb energy =      405.498450117885
    Exchange-Corr. energy =      -46.490081643085
 Nuclear repulsion energy =      146.475986336575

       Scaling correction =        0.810113756203

 Numeric. integr. density =       40.000001365727

     Total iterative time =     14.1s



                  Occupations of the irreducible representations
                  ----------------------------------------------

                     irrep           alpha         beta
                     --------     --------     --------
                     a'               16.0         16.0
                     a"                4.0          4.0


 center of mass
 --------------
 x =  -0.00922731 y =   0.18041414 z =   0.00000000

 moments of inertia (a.u.)
 ------------------
         384.043912447993           8.578017445189           0.000000000000
           8.578017445189         197.530882782198           0.000000000000
           0.000000000000           0.000000000000         570.466183137093

            General Information
            -------------------
          SCF calculation type: DFT
          Wavefunction type:  closed shell.
          No. of atoms     :     9
          No. of electrons :    40
           Alpha electrons :    20
            Beta electrons :    20
          Charge           :     0
          Spin multiplicity:     1
          Use of symmetry is: on ; symmetry adaption is: on 
          Maximum number of iterations: ***
          This is a Direct SCF calculation.
          AO basis - number of functions:    75
                     number of shells:    47
          Convergence on energy requested:  1.00D-06
          Convergence on density requested:  1.00D-05
          Convergence on gradient requested:  5.00D-04

              XC Information
              --------------
                         B3LYP Method XC Potential
                     Hartree-Fock (Exact) Exchange  0.200          
                        Slater Exchange Functional  0.800 local    
                    Becke 1988 Exchange Functional  0.720 non-local
              Lee-Yang-Parr Correlation Functional  0.810          
                  VWN I RPA Correlation Functional  0.190 local    

             Grid Information
             ----------------
          Grid used for XC integration:  fine      
          Radial quadrature: Mura-Knowles        
          Angular quadrature: Lebedev. 
          Tag              B.-S. Rad. Rad. Pts. Rad. Cut. Ang. Pts.
          ---              ---------- --------- --------- ---------
          C                   0.70       70          11.0       590
          Cl                  1.00      123          11.0       770
          H                   0.35       60          12.0       590
          Grid pruning is: on 
          Number of quadrature shells:   573
          Spatial weights used:  Erf1

          Convergence Information
          -----------------------
          Convergence aids based upon iterative change in 
          total energy or number of iterations. 
          Levelshifting, if invoked, occurs when the 
          HOMO/LUMO gap drops below (HL_TOL):  1.00D-02
          DIIS, if invoked, will attempt to extrapolate 
          using up to (NFOCK): 10 stored Fock matrices.

                    Damping( 0%)  Levelshifting(0.5)       DIIS
                  --------------- ------------------- ---------------
          dE  on:    start            ASAP                start   
          dE off:    2 iters        *** iters           *** iters 


      Screening Tolerance Information
      -------------------------------
          Density screening/tol_rho:  1.00D-10
          AO Gaussian exp screening on grid/accAOfunc:  14
          CD Gaussian exp screening on grid/accCDfunc:  20
          XC Gaussian exp screening on grid/accXCfunc:  20
          Schwarz screening/accCoul:  1.00D-08



                            NWChem DFT Gradient Module
                            --------------------------


                               Molecule conformer 0



  charge          =   0.00
  wavefunction    = closed shell

  Using symmetry


                         DFT ENERGY GRADIENTS

    atom               coordinates                        gradient
                 x          y          z           x          y          z
   1 C      -2.158232  -2.417030   0.000000   -0.004295  -0.004380   0.000000
   2 C       0.259470  -0.882693   0.000000   -0.001058   0.018083   0.000000
   3 C       2.607484  -1.790363   0.000000    0.005893  -0.006162   0.000000
   4 Cl     -0.229159   2.509464   0.000000    0.000710  -0.012028   0.000000
   5 H      -2.258557  -3.614568   1.659997   -0.000976   0.002990  -0.003714
   6 H      -3.832374  -1.242248   0.000000    0.000989  -0.003804   0.000000
   7 H      -2.258557  -3.614568  -1.659997   -0.000976   0.002990   0.003714
   8 H       2.917240  -3.806326   0.000000   -0.000056   0.002266   0.000000
   9 H       4.248924  -0.580805   0.000000   -0.000232   0.000046   0.000000

                 ----------------------------------------
                 |  Time  |  1-e(secs)   |  2-e(secs)   |
                 ----------------------------------------
                 |  CPU   |       0.00   |       0.10   |
                 ----------------------------------------
                 |  WALL  |       0.00   |       0.10   |
                 ----------------------------------------
  no constraints, skipping    0.0000000000000000     

  Step       Energy      Delta E   Gmax     Grms     Xrms     Xmax   Walltime
  ---- ---------------- -------- -------- -------- -------- -------- --------
@    1    -579.74006987 -4.8D-03  0.01201  0.00308  0.06462  0.15838     74.3
                                                                    



                                Z-matrix (autoz)
                                -------- 

 Units are Angstrom for bonds and degrees for angles

      Type          Name      I     J     K     L     M      Value     Gradient
      ----------- --------  ----- ----- ----- ----- ----- ---------- ----------
    1 Stretch                  1     2                       1.51528    0.00562
    2 Stretch                  1     5                       1.08446   -0.00471
    3 Stretch                  1     6                       1.08228   -0.00299
    4 Stretch                  1     7                       1.08446   -0.00471
    5 Stretch                  2     3                       1.33212    0.00662
    6 Stretch                  2     4                       1.81358   -0.01201
    7 Stretch                  3     8                       1.07932   -0.00225
    8 Stretch                  3     9                       1.07897   -0.00016
    9 Bend                     1     2     3               126.46473   -0.00045
   10 Bend                     1     2     4               114.20339   -0.00069
   11 Bend                     2     1     5               110.75973    0.00032
   12 Bend                     2     1     6               112.54153    0.00161
   13 Bend                     2     1     7               110.75973    0.00032
   14 Bend                     2     3     8               119.87026    0.00027
   15 Bend                     2     3     9               122.47893   -0.00023
   16 Bend                     3     2     4               119.33188    0.00114
   17 Bend                     5     1     6               107.19267   -0.00108
   18 Bend                     5     1     7               108.19566   -0.00023
   19 Bend                     6     1     7               107.19267   -0.00108
   20 Bend                     8     3     9               117.65081   -0.00004
   21 Torsion                  1     2     3     8           0.00000   -0.00000
   22 Torsion                  1     2     3     9         180.00000    0.00000
   23 Torsion                  3     2     1     5          60.02706    0.00007
   24 Torsion                  3     2     1     6         180.00000    0.00000
   25 Torsion                  3     2     1     7         -60.02706   -0.00007
   26 Torsion                  4     2     1     5        -119.97294    0.00007
   27 Torsion                  4     2     1     6           0.00000    0.00000
   28 Torsion                  4     2     1     7         119.97294   -0.00007
   29 Torsion                  4     2     3     8         180.00000    0.00000
   30 Torsion                  4     2     3     9           0.00000    0.00000

  no constraints, skipping    0.0000000000000000     
  no constraints, skipping    0.0000000000000000     
  no constraints, skipping    0.0000000000000000     
  no constraints, skipping    0.0000000000000000     
  no constraints, skipping    0.0000000000000000     
  no constraints, skipping    0.0000000000000000     
  no constraints, skipping    0.0000000000000000     
  no constraints, skipping    0.0000000000000000     

                                 NWChem DFT Module
                                 -----------------


                               Molecule conformer 0




 Summary of "ao basis" -> "ao basis" (spherical)
 ------------------------------------------------------------------------------
       Tag                 Description            Shells   Functions and Types
 ---------------- ------------------------------  ------  ---------------------
 C                           6-311G                  7       13   4s3p
 Cl                          6-311G                 11       21   6s5p
 H                           6-311G                  3        3   3s


      Symmetry analysis of basis
      --------------------------

        a'         58
        a"         17

  Caching 1-el integrals 

            General Information
            -------------------
          SCF calculation type: DFT
          Wavefunction type:  closed shell.
          No. of atoms     :     9
          No. of electrons :    40
           Alpha electrons :    20
            Beta electrons :    20
          Charge           :     0
          Spin multiplicity:     1
          Use of symmetry is: on ; symmetry adaption is: on 
          Maximum number of iterations: ***
          This is a Direct SCF calculation.
          AO basis - number of functions:    75
                     number of shells:    47
          Convergence on energy requested:  1.00D-06
          Convergence on density requested:  1.00D-05
          Convergence on gradient requested:  5.00D-04

              XC Information
              --------------
                         B3LYP Method XC Potential
                     Hartree-Fock (Exact) Exchange  0.200          
                        Slater Exchange Functional  0.800 local    
                    Becke 1988 Exchange Functional  0.720 non-local
              Lee-Yang-Parr Correlation Functional  0.810          
                  VWN I RPA Correlation Functional  0.190 local    

             Grid Information
             ----------------
          Grid used for XC integration:  fine      
          Radial quadrature: Mura-Knowles        
          Angular quadrature: Lebedev. 
          Tag              B.-S. Rad. Rad. Pts. Rad. Cut. Ang. Pts.
          ---              ---------- --------- --------- ---------
          C                   0.70       70          11.0       590
          Cl                  1.00      123          11.0       770
          H                   0.35       60          12.0       590
          Grid pruning is: on 
          Number of quadrature shells:   573
          Spatial weights used:  Erf1

          Convergence Information
          -----------------------
          Convergence aids based upon iterative change in 
          total energy or number of iterations. 
          Levelshifting, if invoked, occurs when the 
          HOMO/LUMO gap drops below (HL_TOL):  1.00D-02
          DIIS, if invoked, will attempt to extrapolate 
          using up to (NFOCK): 10 stored Fock matrices.

                    Damping( 0%)  Levelshifting(0.5)       DIIS
                  --------------- ------------------- ---------------
          dE  on:    start            ASAP                start   
          dE off:    2 iters        *** iters           *** iters 


      Screening Tolerance Information
      -------------------------------
          Density screening/tol_rho:  1.00D-10
          AO Gaussian exp screening on grid/accAOfunc:  14
          CD Gaussian exp screening on grid/accCDfunc:  20
          XC Gaussian exp screening on grid/accXCfunc:  20
          Schwarz screening/accCoul:  1.00D-08

          Performing ZORA calculations
          ----------------------------


      Superposition of Atomic Density Guess
      -------------------------------------

 Sum of atomic energies:        -574.98156165

 Read atomic ZORA corrections from ./CC(=C)Cl_mol_8_conformer_0.zora_sf

 Forcing recalculation of ZORA corrections
       Generating atomic ZORA corrections
       ----------------------------------

 In dft_scf:: zora:Knucl= F

 Grid_pts file          = ./CC(=C)Cl_mol_8_conformer_0.gridpts.00
 Record size in doubles =  12289        No. of grid_pts per rec  =   3070
 Max. records in memory =      5        Max. recs in file   =     13476


 Wrote atomic ZORA corrections to ./CC(=C)Cl_mol_8_conformer_0.zora_sf


 Loading old vectors from job with title :

Molecule conformer 0


      Symmetry analysis of molecular orbitals - initial
      -------------------------------------------------

  Numbering of irreducible representations: 

     1 a'          2 a"      

  Orbital symmetries:

     1 a'          2 a'          3 a'          4 a'          5 a'      
     6 a'          7 a"          8 a'          9 a'         10 a'      
    11 a'         12 a'         13 a'         14 a'         15 a"      
    16 a'         17 a'         18 a"         19 a'         20 a"      
    21 a"         22 a'         23 a'         24 a'         25 a'      
    26 a"         27 a'         28 a'         29 a'         30 a"      

   Time after variat. SCF:     81.4
   Time prior to 1st pass:     81.4

           Memory utilization after 1st SCF pass: 
           Heap Space remaining (MW):      131.01           131006386
          Stack Space remaining (MW):      131.06           131060060

   convergence    iter        energy       DeltaE   RMS-Dens  Diis-err    time
 ---------------- ----- ----------------- --------- --------- ---------  ------
 d= 0,ls=0.0,diis     1   -579.7404725848 -7.26D+02  6.18D-04  1.09D-03    83.7
 d= 0,ls=0.0,diis     2   -579.7406762818 -2.04D-04  1.88D-04  6.17D-05    86.2
 d= 0,ls=0.0,diis     3   -579.7406660668  1.02D-05  1.06D-04  1.44D-04    88.4
 d= 0,ls=0.0,diis     4   -579.7406843785 -1.83D-05  1.97D-05  3.07D-06    90.4
 d= 0,ls=0.0,diis     5   -579.7406847488 -3.70D-07  4.15D-06  3.64D-07    92.7
(nogshift,skip_gshiftAOev,done_Fji)=( 1,F,F)


         Total DFT energy =     -579.740684748810
      One electron energy =    -1084.399615075047
           Coulomb energy =      405.091454131108
    Exchange-Corr. energy =      -46.484149012841
 Nuclear repulsion energy =      146.051625207970

       Scaling correction =        0.810095138219

 Numeric. integr. density =       40.000001366179

     Total iterative time =     11.4s



                  Occupations of the irreducible representations
                  ----------------------------------------------

                     irrep           alpha         beta
                     --------     --------     --------
                     a'               16.0         16.0
                     a"                4.0          4.0


 center of mass
 --------------
 x =  -0.01191592 y =   0.18561328 z =   0.00000000

 moments of inertia (a.u.)
 ------------------
         388.458091019453           8.889747068999           0.000000000000
           8.889747068999         197.011903950173           0.000000000000
           0.000000000000           0.000000000000         574.258855132970
 Line search: 
     step= 1.00 grad=-9.1D-04 hess= 2.9D-04 energy=   -579.740685 mode=downhill
 new step= 1.55                   predicted energy=   -579.740774
  no constraints, skipping    0.0000000000000000     
  no constraints, skipping    0.0000000000000000     
  no constraints, skipping    0.0000000000000000     
  no constraints, skipping    0.0000000000000000     
  no constraints, skipping    0.0000000000000000     
  no constraints, skipping    0.0000000000000000     
  no constraints, skipping    0.0000000000000000     
  no constraints, skipping    0.0000000000000000     

          --------
          Step   2
          --------


                         Geometry "geometry" -> "geometry"
                         ---------------------------------

 Output coordinates in angstroms (scale by  1.889725989 to convert to a.u.)

  No.       Tag          Charge          X              Y              Z
 ---- ---------------- ---------- -------------- -------------- --------------
    1 C                    6.0000    -1.14130861    -1.28340089     0.00000000
    2 C                    6.0000     0.13627891    -0.48663918     0.00000000
    3 C                    6.0000     1.37481418    -0.94633963     0.00000000
    4 Cl                  17.0000    -0.12452415     1.34492674     0.00000000
    5 H                    1.0000    -1.19573356    -1.92166108     0.88470933
    6 H                    1.0000    -2.01295702    -0.63649154     0.00000000
    7 H                    1.0000    -1.19573356    -1.92166108    -0.88470933
    8 H                    1.0000     1.54688614    -2.01628032     0.00000000
    9 H                    1.0000     2.23986287    -0.30249357     0.00000000

      Atomic Mass 
      ----------- 

      C                 12.000000
      Cl                34.968850
      H                  1.007825


 Effective nuclear repulsion energy (a.u.)     145.8232302716

            Nuclear Dipole moment (a.u.) 
            ----------------------------
        X                 Y               Z
 ---------------- ---------------- ----------------
    -0.9748693455    -0.4405164713     0.0000000000

      Symmetry information
      --------------------

 Group name             Cs        
 Group number              2
 Group order               2
 No. of unique centers     8

      Symmetry unique atoms

     1    2    3    4    5    6    8    9


                                 NWChem DFT Module
                                 -----------------


                               Molecule conformer 0




 Summary of "ao basis" -> "ao basis" (spherical)
 ------------------------------------------------------------------------------
       Tag                 Description            Shells   Functions and Types
 ---------------- ------------------------------  ------  ---------------------
 C                           6-311G                  7       13   4s3p
 Cl                          6-311G                 11       21   6s5p
 H                           6-311G                  3        3   3s


      Symmetry analysis of basis
      --------------------------

        a'         58
        a"         17

  Caching 1-el integrals 

            General Information
            -------------------
          SCF calculation type: DFT
          Wavefunction type:  closed shell.
          No. of atoms     :     9
          No. of electrons :    40
           Alpha electrons :    20
            Beta electrons :    20
          Charge           :     0
          Spin multiplicity:     1
          Use of symmetry is: on ; symmetry adaption is: on 
          Maximum number of iterations: ***
          This is a Direct SCF calculation.
          AO basis - number of functions:    75
                     number of shells:    47
          Convergence on energy requested:  1.00D-06
          Convergence on density requested:  1.00D-05
          Convergence on gradient requested:  5.00D-04

              XC Information
              --------------
                         B3LYP Method XC Potential
                     Hartree-Fock (Exact) Exchange  0.200          
                        Slater Exchange Functional  0.800 local    
                    Becke 1988 Exchange Functional  0.720 non-local
              Lee-Yang-Parr Correlation Functional  0.810          
                  VWN I RPA Correlation Functional  0.190 local    

             Grid Information
             ----------------
          Grid used for XC integration:  fine      
          Radial quadrature: Mura-Knowles        
          Angular quadrature: Lebedev. 
          Tag              B.-S. Rad. Rad. Pts. Rad. Cut. Ang. Pts.
          ---              ---------- --------- --------- ---------
          C                   0.70       70          11.0       590
          Cl                  1.00      123          11.0       770
          H                   0.35       60          12.0       590
          Grid pruning is: on 
          Number of quadrature shells:   573
          Spatial weights used:  Erf1

          Convergence Information
          -----------------------
          Convergence aids based upon iterative change in 
          total energy or number of iterations. 
          Levelshifting, if invoked, occurs when the 
          HOMO/LUMO gap drops below (HL_TOL):  1.00D-02
          DIIS, if invoked, will attempt to extrapolate 
          using up to (NFOCK): 10 stored Fock matrices.

                    Damping( 0%)  Levelshifting(0.5)       DIIS
                  --------------- ------------------- ---------------
          dE  on:    start            ASAP                start   
          dE off:    2 iters        *** iters           *** iters 


      Screening Tolerance Information
      -------------------------------
          Density screening/tol_rho:  1.00D-10
          AO Gaussian exp screening on grid/accAOfunc:  14
          CD Gaussian exp screening on grid/accCDfunc:  20
          XC Gaussian exp screening on grid/accXCfunc:  20
          Schwarz screening/accCoul:  1.00D-08

          Performing ZORA calculations
          ----------------------------


      Superposition of Atomic Density Guess
      -------------------------------------

 Sum of atomic energies:        -574.98156165

 Read atomic ZORA corrections from ./CC(=C)Cl_mol_8_conformer_0.zora_sf

 Forcing recalculation of ZORA corrections
       Generating atomic ZORA corrections
       ----------------------------------

 In dft_scf:: zora:Knucl= F

 Grid_pts file          = ./CC(=C)Cl_mol_8_conformer_0.gridpts.00
 Record size in doubles =  12289        No. of grid_pts per rec  =   3070
 Max. records in memory =      5        Max. recs in file   =     13476


 Wrote atomic ZORA corrections to ./CC(=C)Cl_mol_8_conformer_0.zora_sf


 Loading old vectors from job with title :

Molecule conformer 0


      Symmetry analysis of molecular orbitals - initial
      -------------------------------------------------

  Numbering of irreducible representations: 

     1 a'          2 a"      

  Orbital symmetries:

     1 a'          2 a'          3 a'          4 a'          5 a'      
     6 a'          7 a"          8 a'          9 a'         10 a'      
    11 a'         12 a'         13 a'         14 a'         15 a"      
    16 a'         17 a'         18 a"         19 a'         20 a"      
    21 a"         22 a'         23 a'         24 a'         25 a'      
    26 a"         27 a'         28 a'         29 a'         30 a"      

   Time after variat. SCF:     99.5
   Time prior to 1st pass:     99.5

           Memory utilization after 1st SCF pass: 
           Heap Space remaining (MW):      131.01           131006386
          Stack Space remaining (MW):      131.06           131060060

   convergence    iter        energy       DeltaE   RMS-Dens  Diis-err    time
 ---------------- ----- ----------------- --------- --------- ---------  ------
 d= 0,ls=0.0,diis     1   -579.7407218322 -7.26D+02  3.36D-04  3.23D-04   101.7
 d= 0,ls=0.0,diis     2   -579.7407824878 -6.07D-05  9.90D-05  1.71D-05   104.2
 d= 0,ls=0.0,diis     3   -579.7407799355  2.55D-06  5.49D-05  3.80D-05   106.4
 d= 0,ls=0.0,diis     4   -579.7407847279 -4.79D-06  1.12D-05  1.00D-06   108.7
 d= 0,ls=0.0,diis     5   -579.7407848494 -1.21D-07  2.41D-06  1.10D-07   110.8
(nogshift,skip_gshiftAOev,done_Fji)=( 1,F,F)


         Total DFT energy =     -579.740784849356
      One electron energy =    -1083.954943172173
           Coulomb energy =      404.872014013038
    Exchange-Corr. energy =      -46.481085961792
 Nuclear repulsion energy =      145.823230271571

       Scaling correction =        0.810084803055

 Numeric. integr. density =       40.000001267119

     Total iterative time =     11.4s



                  Occupations of the irreducible representations
                  ----------------------------------------------

                     irrep           alpha         beta
                     --------     --------     --------
                     a'               16.0         16.0
                     a"                4.0          4.0


 center of mass
 --------------
 x =  -0.01341467 y =   0.18851018 z =   0.00000000

 moments of inertia (a.u.)
 ------------------
         390.920595364754           9.060705045195           0.000000000000
           9.060705045195         196.711338643446           0.000000000000
           0.000000000000           0.000000000000         576.364007575019

            General Information
            -------------------
          SCF calculation type: DFT
          Wavefunction type:  closed shell.
          No. of atoms     :     9
          No. of electrons :    40
           Alpha electrons :    20
            Beta electrons :    20
          Charge           :     0
          Spin multiplicity:     1
          Use of symmetry is: on ; symmetry adaption is: on 
          Maximum number of iterations: ***
          This is a Direct SCF calculation.
          AO basis - number of functions:    75
                     number of shells:    47
          Convergence on energy requested:  1.00D-06
          Convergence on density requested:  1.00D-05
          Convergence on gradient requested:  5.00D-04

              XC Information
              --------------
                         B3LYP Method XC Potential
                     Hartree-Fock (Exact) Exchange  0.200          
                        Slater Exchange Functional  0.800 local    
                    Becke 1988 Exchange Functional  0.720 non-local
              Lee-Yang-Parr Correlation Functional  0.810          
                  VWN I RPA Correlation Functional  0.190 local    

             Grid Information
             ----------------
          Grid used for XC integration:  fine      
          Radial quadrature: Mura-Knowles        
          Angular quadrature: Lebedev. 
          Tag              B.-S. Rad. Rad. Pts. Rad. Cut. Ang. Pts.
          ---              ---------- --------- --------- ---------
          C                   0.70       70          11.0       590
          Cl                  1.00      123          11.0       770
          H                   0.35       60          12.0       590
          Grid pruning is: on 
          Number of quadrature shells:   573
          Spatial weights used:  Erf1

          Convergence Information
          -----------------------
          Convergence aids based upon iterative change in 
          total energy or number of iterations. 
          Levelshifting, if invoked, occurs when the 
          HOMO/LUMO gap drops below (HL_TOL):  1.00D-02
          DIIS, if invoked, will attempt to extrapolate 
          using up to (NFOCK): 10 stored Fock matrices.

                    Damping( 0%)  Levelshifting(0.5)       DIIS
                  --------------- ------------------- ---------------
          dE  on:    start            ASAP                start   
          dE off:    2 iters        *** iters           *** iters 


      Screening Tolerance Information
      -------------------------------
          Density screening/tol_rho:  1.00D-10
          AO Gaussian exp screening on grid/accAOfunc:  14
          CD Gaussian exp screening on grid/accCDfunc:  20
          XC Gaussian exp screening on grid/accXCfunc:  20
          Schwarz screening/accCoul:  1.00D-08



                            NWChem DFT Gradient Module
                            --------------------------


                               Molecule conformer 0



  charge          =   0.00
  wavefunction    = closed shell

  Using symmetry


                         DFT ENERGY GRADIENTS

    atom               coordinates                        gradient
                 x          y          z           x          y          z
   1 C      -2.156761  -2.425276   0.000000   -0.000926  -0.000354   0.000000
   2 C       0.257530  -0.919615   0.000000    0.005511   0.001798   0.000000
   3 C       2.598022  -1.788323   0.000000   -0.004363   0.001189   0.000000
   4 Cl     -0.235317   2.541543   0.000000   -0.000344  -0.001917   0.000000
   5 H      -2.259609  -3.631413   1.671858   -0.000011  -0.000186   0.000382
   6 H      -3.803937  -1.202795   0.000000    0.000552   0.000040   0.000000
   7 H      -2.259609  -3.631413  -1.671858   -0.000011  -0.000186  -0.000382
   8 H       2.923191  -3.810217   0.000000   -0.000126  -0.000245   0.000000
   9 H       4.232727  -0.571630   0.000000   -0.000281  -0.000138   0.000000

                 ----------------------------------------
                 |  Time  |  1-e(secs)   |  2-e(secs)   |
                 ----------------------------------------
                 |  CPU   |       0.00   |       0.10   |
                 ----------------------------------------
                 |  WALL  |       0.00   |       0.10   |
                 ----------------------------------------
  no constraints, skipping    0.0000000000000000     

  Step       Energy      Delta E   Gmax     Grms     Xrms     Xmax   Walltime
  ---- ---------------- -------- -------- -------- -------- -------- --------
@    2    -579.74078485 -7.1D-04  0.00475  0.00097  0.01518  0.03940    113.1
[...]
dia1(k,t,iat1,ispin)=(  2,  3,  8,  1)=(     0.00063042,     0.00063042) ppm
dia1(k,t,iat1,ispin)=(  3,  1,  8,  1)=(     0.00078072,     0.00078072) ppm
dia1(k,t,iat1,ispin)=(  3,  2,  8,  1)=(    -0.00024438,    -0.00024438) ppm
dia1(k,t,iat1,ispin)=(  3,  3,  8,  1)=(    16.14767985,    16.14767985) ppm
(dia2,par1)(k,t,iat1,spin)=(  1,  1,  8,  1)=(     5.80663762,     5.80663762,     0.37757453,     0.37757453) ppm
(dia2,par1)(k,t,iat1,spin)=(  2,  1,  8,  1)=(     0.81454133,     0.81454133,    -0.42639734,    -0.42639734) ppm
(dia2,par1)(k,t,iat1,spin)=(  3,  1,  8,  1)=(    -0.00074609,    -0.00074609,    -0.00137207,    -0.00137207) ppm
(dia2,par1)(k,t,iat1,spin)=(  1,  2,  8,  1)=(     1.37474696,     1.37474696,     1.31190383,     1.31190383) ppm
(dia2,par1)(k,t,iat1,spin)=(  2,  2,  8,  1)=(     0.11551542,     0.11551542,    -0.93795376,    -0.93795376) ppm
(dia2,par1)(k,t,iat1,spin)=(  3,  2,  8,  1)=(    -0.00288327,    -0.00288327,     0.00047293,     0.00047293) ppm
(dia2,par1)(k,t,iat1,spin)=(  1,  3,  8,  1)=(    -0.00048386,    -0.00048386,     0.00002721,     0.00002721) ppm
(dia2,par1)(k,t,iat1,spin)=(  2,  3,  8,  1)=(     0.00079890,     0.00079890,     0.00026593,     0.00026593) ppm
(dia2,par1)(k,t,iat1,spin)=(  3,  3,  8,  1)=(     5.80435173,     5.80435173,     1.19912996,     1.19912996) ppm
dia1(k,t,iat1,ispin)=(  1,  1,  9,  1)=(    37.08978333,    37.08978333) ppm
dia1(k,t,iat1,ispin)=(  1,  2,  9,  1)=(     8.34171264,     8.34171264) ppm
dia1(k,t,iat1,ispin)=(  1,  3,  9,  1)=(    -0.00127414,    -0.00127414) ppm
dia1(k,t,iat1,ispin)=(  2,  1,  9,  1)=(     7.64553447,     7.64553447) ppm
dia1(k,t,iat1,ispin)=(  2,  2,  9,  1)=(    24.97216591,    24.97216591) ppm
dia1(k,t,iat1,ispin)=(  2,  3,  9,  1)=(     0.00114181,     0.00114181) ppm
dia1(k,t,iat1,ispin)=(  3,  1,  9,  1)=(     0.00090490,     0.00090490) ppm
dia1(k,t,iat1,ispin)=(  3,  2,  9,  1)=(    -0.00005780,    -0.00005780) ppm
dia1(k,t,iat1,ispin)=(  3,  3,  9,  1)=(    15.12767686,    15.12767686) ppm
(dia2,par1)(k,t,iat1,spin)=(  1,  1,  9,  1)=(     1.52215484,     1.52215484,    -0.17270555,    -0.17270555) ppm
(dia2,par1)(k,t,iat1,spin)=(  2,  1,  9,  1)=(    -3.23904312,    -3.23904312,     0.10799001,     0.10799001) ppm
(dia2,par1)(k,t,iat1,spin)=(  3,  1,  9,  1)=(    -0.00045484,    -0.00045484,    -0.00071841,    -0.00071841) ppm
(dia2,par1)(k,t,iat1,spin)=(  1,  2,  9,  1)=(    -3.30885061,    -3.30885061,     0.61493670,     0.61493670) ppm
(dia2,par1)(k,t,iat1,spin)=(  2,  2,  9,  1)=(     3.95796281,     3.95796281,    -0.44223184,    -0.44223184) ppm
(dia2,par1)(k,t,iat1,spin)=(  3,  2,  9,  1)=(    -0.00138857,    -0.00138857,    -0.00178061,    -0.00178061) ppm
(dia2,par1)(k,t,iat1,spin)=(  1,  3,  9,  1)=(    -0.00399444,    -0.00399444,    -0.00005884,    -0.00005884) ppm
(dia2,par1)(k,t,iat1,spin)=(  2,  3,  9,  1)=(    -0.00044696,    -0.00044696,     0.00003248,     0.00003248) ppm
(dia2,par1)(k,t,iat1,spin)=(  3,  3,  9,  1)=(     6.02631019,     6.02631019,    -0.73628174,    -0.73628174) ppm

 Wrote ZORA NMR data to ./CC(=C)Cl_mol_8_conformer_0.zora_nmrcs

(nogshift,skip_gshiftAOev,done_Fji)=( 1,F,T)


         Total DFT energy =     -579.746116987498
      One electron energy =    -1083.869136947453
           Coulomb energy =      404.775487588931
    Exchange-Corr. energy =      -46.478633110716
 Nuclear repulsion energy =      145.575771379740

             COSMO energy =        0.250394102000

       Scaling correction =        0.810205780602

 Numeric. integr. density =       40.000001397786

     Total iterative time =     63.3s


                                   COSMO solvation results
                                   -----------------------

                 gas phase energy =      -579.740921618202
                 sol phase energy =      -579.746116987498
 (electrostatic) solvation energy =         0.005195369295 (    3.26 kcal/mol)

 center of mass
 --------------
 x =  -0.00888934 y =   0.18914298 z =   0.00000000

 moments of inertia (a.u.)
 ------------------
         392.292174015173           8.071780978558           0.000000000000
           8.071780978558         197.406160434526           0.000000000000
           0.000000000000           0.000000000000         578.455265235724

            Scalar ZORA NMR Shielding
            -------------------------


          -----------------------------------------
          Chemical Shielding Tensors (GIAO, in ppm)
          -----------------------------------------


 Read ZORA NMR data from ./CC(=C)Cl_mol_8_conformer_0.zora_nmrcs

    0 giaofock schwarz done =      92.61%
    0 giaofock schwarz done =      81.48%
                                NWChem CPHF Module
                                ------------------



 solvent parameters
 solvname_short: cdcl3   
 solvname_long:  unknown                            
 dielec:       78.4000
 dielecinf:     1.7769

          ---------------
          -cosmo- solvent
          ---------------
 Cosmo: York-Karplus, doi: 10.1021/jp992097l
 dielectric constant -eps-     =  78.40
 screen = (eps-1)/(eps    )    =   0.98724
 surface charge correction     = lagrangian
 -lineq- algorithm             =   0
 -bem- low  level              =   2
 -bem- from -octahedral-
 gaussian surface charge width =   0.98000
 degree of switching           =   1.00000
 switching function tolerance  =   0.00010
 atomic radii = 
 --------------
    1  6.000  2.000
    2  6.000  2.000
    3  6.000  2.000
    4 17.000  2.050
    5  1.000  1.300
    6  1.000  1.300
    7  1.000  1.300
    8  1.000  1.300
    9  1.000  1.300

 solvent accessible surface
 --------------------------

 ---------- ATOMIC COORDINATES (A.U.) ------------ VDWR(ANG.) --
     1   -2.16253880   -2.42574332    0.00000000     2.000
     2    0.25235712   -0.93110775    0.00000000     2.000
     3    2.60417299   -1.79012260    0.00000000     2.000
     4   -0.22363477    2.54741309    0.00000000     2.050
     5   -2.26844712   -3.63237565    1.67001312     1.300
     6   -3.81088591   -1.20292440    0.00000000     1.300
     7   -2.26844712   -3.63237565   -1.67001312     1.300
     8    2.94232883   -3.80941795    0.00000000     1.300
     9    4.23133290   -0.56248373    0.00000000     1.300
 number of segments per atom =         32
 number of   points per atom =         32
 atom (   nspa,  nppa )
 ----------------------
    1 (     18,     0 )       0
    2 (     10,     0 )       0
    3 (     20,     0 )       0
    4 (     26,     0 )       0
    5 (     15,     0 )       0
    6 (     12,     0 )       0
    7 (     15,     0 )       0
    8 (     14,     0 )       0
    9 (     14,     0 )       0
 number of -cosmo- surface points =      144
 molecular surface =    115.066 angstrom**2
 molecular volume  =     70.270 angstrom**3
 G(cav/disp)       =      1.435 kcal/mol
 ...... end of -cosmo- initialization ......


  scftype          =     RHF 
  nclosed          =       20
  nopen            =        0
  variables        =     1100
  # of vectors     =        3
  tolerance        = 0.10D-03
  level shift      = 0.00D+00
  max iterations   =       50
  max subspace     =       30

 SCF residual:    1.6681599666878557E-005


Iterative solution of linear equations
  No. of variables     1100
  No. of equations        3
  Maximum subspace       30
        Iterations       50
       Convergence  1.0D-04
        Start time   1050.1


   iter   nsub   residual    time
   ----  ------  --------  ---------
     1      3    4.90D-01    1052.9
     2      6    2.40D-02    1055.7
     3      9    1.79D-03    1058.3
     4     12    5.59D-05    1061.2

 Wrote CPHF data to ./CC(=C)Cl_mol_8_conformer_0.shieldcphf

 Calc. par tensor-> zora
      Atom:    1  H 
        Diamagnetic
     26.4464      3.5954     -2.1548
      3.5954     30.7534     -7.7150
     -2.1548     -7.7150     31.0499

        Paramagnetic
      3.1532     -1.2157      0.9868
     -1.2157      0.2194      3.6828
      0.9868      3.6828     -1.1952

        Total Shielding Tensor
     29.5997      2.3797     -1.1679
      2.3797     30.9728     -4.0322
     -1.1679     -4.0322     29.8547

           isotropic =      30.1424
          anisotropy =       8.1704

          Principal Components and Axis System
                 1           2           3
               35.5893     28.6709     26.1670

      1         0.3959      0.8839     -0.2491
      2         0.7113     -0.1236      0.6919
      3        -0.5808      0.4511      0.6777



      Atom:    2  H 
        Diamagnetic
     36.8412     -2.5890      0.0024
     -2.5890     29.2517      0.0010
      0.0024      0.0010     21.7188

        Paramagnetic
     -1.3054      2.1250     -0.0022
      2.1250      2.1645     -0.0023
     -0.0022     -0.0023      4.6928

        Total Shielding Tensor
     35.5357     -0.4640      0.0002
     -0.4640     31.4162     -0.0013
      0.0002     -0.0013     26.4116

           isotropic =      31.1212
          anisotropy =       6.6992

          Principal Components and Axis System
                 1           2           3
               35.5873     31.3646     26.4116

      1         0.9939      0.1106     -0.0000
      2        -0.1106      0.9939      0.0003
      3         0.0000     -0.0003      1.0000



      Atom:    3  H 
        Diamagnetic
     26.4490      3.5956      2.1570
      3.5956     30.7565      7.7165
      2.1570      7.7165     31.0529

        Paramagnetic
      3.1565     -1.2148     -0.9882
     -1.2148      0.2201     -3.6846
     -0.9882     -3.6846     -1.1958

        Total Shielding Tensor
     29.6055      2.3808      1.1688
      2.3808     30.9767      4.0319
      1.1688      4.0319     29.8571

           isotropic =      30.1464
          anisotropy =       8.1710

          Principal Components and Axis System
                 1           2           3
               35.5938     28.6750     26.1705

      1         0.3961      0.8838      0.2489
      2         0.7113     -0.1239     -0.6919
      3         0.5806     -0.4511      0.6778



      Atom:    4  H 
        Diamagnetic
     28.2523     -5.2984     -0.0006
     -5.2984     39.8960     -0.0008
     -0.0006     -0.0008     21.9520

        Paramagnetic
      1.3616      2.6961      0.0004
      2.6961    -14.2971      0.0024
      0.0004      0.0024      3.8975

        Total Shielding Tensor
     29.6139     -2.6023     -0.0002
     -2.6023     25.5989      0.0015
     -0.0002      0.0015     25.8495

           isotropic =      27.0208
          anisotropy =       5.8084

          Principal Components and Axis System
                 1           2           3
               30.8930     25.8495     24.3198

      1         0.8974      0.0005      0.4411
      2        -0.4411      0.0007      0.8974
      3        -0.0002      1.0000     -0.0008



      Atom:    5  H 
        Diamagnetic
     38.6119      4.7197     -0.0024
      4.7197     28.9301     -0.0004
     -0.0024     -0.0004     21.1540

        Paramagnetic
     -7.4551     -6.9262      0.0023
     -6.9262     -4.2852      0.0009
      0.0023      0.0009      4.6487

        Total Shielding Tensor
     31.1568     -2.2065     -0.0001
     -2.2065     24.6449      0.0005
     -0.0001      0.0005     25.8026

           isotropic =      27.2014
          anisotropy =       6.9489

          Principal Components and Axis System
                 1           2           3
               31.8340     25.8026     23.9677

      1         0.9560      0.0001      0.2934
      2        -0.2934      0.0002      0.9560
      3        -0.0000      1.0000     -0.0002




 Task  times  cpu:      103.2s     wall:       87.8s


                                NWChem Input Module
                                -------------------


 Summary of allocated global arrays
-----------------------------------
  array 0 => double precision sf 1(75,75),  handle: -987 
  array 1 => double precision sf 1(75,75),  handle: -986 
  array 2 => double precision sf 1(75,75),  handle: -985 
  array 3 => double precision sf 1(75,75),  handle: -984 
  array 4 => double precision sf 1(75,75),  handle: -983 
  array 5 => double precision sf 1(75,75),  handle: -982 
  array 6 => double precision sf 1(75,75),  handle: -981 
  array 7 => double precision sf 1(75,75),  handle: -980 
  array 8 => double precision sf 1(75,75),  handle: -979 
  array 9 => double precision sf 1(75,75),  handle: -978 
  array 10 => double precision sf 1(75,75),  handle: -977 
  array 11 => double precision sf 1(75,75),  handle: -976 
  array 12 => double precision sf 1(75,75),  handle: -975 
  array 13 => double precision sf 1(75,75),  handle: -974 
  array 14 => double precision sf 1(75,75),  handle: -973 
  array 15 => double precision sf 1(75,75),  handle: -972 
  array 16 => double precision sf 1(75,75),  handle: -971 
  array 17 => double precision sf 1(75,75),  handle: -970 
  array 18 => double precision sf 1(75,75),  handle: -969 
  array 19 => double precision sf 1(75,75),  handle: -968 
  array 20 => double precision sf 1(75,75),  handle: -967 
  array 21 => double precision sf 1(75,75),  handle: -966 
  array 22 => double precision sf 1(75,75),  handle: -965 
  array 23 => double precision sf 1(75,75),  handle: -964 
  array 24 => double precision sf 1(75,75),  handle: -963 
  array 25 => double precision sf 1(75,75),  handle: -962 
  array 26 => double precision sf 1(75,75),  handle: -961 
  array 27 => double precision sf 1(75,75),  handle: -960 
  array 28 => double precision sf 1(75,75),  handle: -959 
  array 29 => double precision sf 1(75,75),  handle: -958 
  array 30 => double precision sf 1(75,75),  handle: -957 
  array 31 => double precision sf 1(75,75),  handle: -956 
  array 32 => double precision sf 1(75,75),  handle: -955 
  array 33 => double precision sf 1(75,75),  handle: -954 
  array 34 => double precision sf 1(75,75),  handle: -953 
  array 35 => double precision sf 1(75,75),  handle: -952 
  array 36 => double precision sf 1(75,75),  handle: -951 
  array 37 => double precision sf 1(75,75),  handle: -950 
  array 38 => double precision sf 1(75,75),  handle: -949 
  array 39 => double precision sf 1(75,75),  handle: -948 
  array 40 => double precision sf 1(75,75),  handle: -947 
  array 41 => double precision sf 1(75,75),  handle: -946 
  array 42 => double precision sf 1(75,75),  handle: -945 
  array 43 => double precision sf 1(75,75),  handle: -944 
  array 44 => double precision sf 1(75,75),  handle: -943 
  array 45 => double precision sf 1(75,75),  handle: -942 
  array 46 => double precision sf 1(75,75),  handle: -941 
  array 47 => double precision sf 1(75,75),  handle: -940 
  array 48 => double precision sf 1(75,75),  handle: -939 
  array 49 => double precision sf 1(75,75),  handle: -938 
  array 50 => double precision sf 1(75,75),  handle: -937 
  array 51 => double precision sf 1(75,75),  handle: -936 
  array 52 => double precision sf 1(75,75),  handle: -935 
  array 53 => double precision sf 1(75,75),  handle: -934 
  array 54 => double precision sf 1(75,75),  handle: -933 
  array 55 => double precision sf 1(75,75),  handle: -932 
  array 56 => double precision sf 1(75,75),  handle: -931 



                         GA Statistics for process    0
                         ------------------------------

       create   destroy   get      put      acc     scatter   gather  read&inc
calls: 8660     8298     2.97e+05 5.34e+04 7.46e+04   60        0     1.05e+04 
number of processes/call 0.00e+00 0.00e+00 0.00e+00 0.00e+00 0.00e+00
bytes total:             4.04e+08 5.82e+07 3.38e+08 4.48e+02 0.00e+00 8.40e+04
bytes remote:            3.58e+08 4.99e+07 3.10e+08 -2.24e+02 0.00e+00 0.00e+00
Max memory consumed for GA by this process: 660432 bytes

MA_summarize_allocated_blocks: starting scan ...
MA_summarize_allocated_blocks: scan completed: 0 heap blocks, 0 stack blocks
MA usage statistics:

	allocation statistics:
					      heap	     stack
					      ----	     -----
	current number of blocks	         0	         0
	maximum number of blocks	        66	        59
	current total bytes		         0	         0
	maximum total bytes		   2300808	  24872344
	maximum total K-bytes		      2301	     24873
	maximum total M-bytes		         3	        25


                                     CITATION
                                     --------
                Please cite the following reference when publishing
                           results obtained with NWChem:

          E. Apr, E. J. Bylaska, W. A. de Jong, N. Govind, K. Kowalski,
       T. P. Straatsma, M. Valiev, H. J. J. van Dam, Y. Alexeev, J. Anchell,
       V. Anisimov, F. W. Aquino, R. Atta-Fynn, J. Autschbach, N. P. Bauman,
     J. C. Becca, D. E. Bernholdt, K. Bhaskaran-Nair, S. Bogatko, P. Borowski,
        J. Boschen, J. Brabec, A. Bruner, E. Caut, Y. Chen, G. N. Chuev,
      C. J. Cramer, J. Daily, M. J. O. Deegan, T. H. Dunning Jr., M. Dupuis,
   K. G. Dyall, G. I. Fann, S. A. Fischer, A. Fonari, H. Frchtl, L. Gagliardi,
      J. Garza, N. Gawande, S. Ghosh, K. Glaesemann, A. W. Gtz, J. Hammond,
       V. Helms, E. D. Hermes, K. Hirao, S. Hirata, M. Jacquelin, L. Jensen,
   B. G. Johnson, H. Jnsson, R. A. Kendall, M. Klemm, R. Kobayashi, V. Konkov,
      S. Krishnamoorthy, M. Krishnan, Z. Lin, R. D. Lins, R. J. Littlefield,
      A. J. Logsdail, K. Lopata, W. Ma, A. V. Marenich, J. Martin del Campo,
   D. Mejia-Rodriguez, J. E. Moore, J. M. Mullin, T. Nakajima, D. R. Nascimento,
    J. A. Nichols, P. J. Nichols, J. Nieplocha, A. Otero-de-la-Roza, B. Palmer,
    A. Panyala, T. Pirojsirikul, B. Peng, R. Peverati, J. Pittner, L. Pollack,
   R. M. Richard, P. Sadayappan, G. C. Schatz, W. A. Shelton, D. W. Silverstein,
   D. M. A. Smith, T. A. Soares, D. Song, M. Swart, H. L. Taylor, G. S. Thomas,
            V. Tipparaju, D. G. Truhlar, K. Tsemekhman, T. Van Voorhis,
     . Vzquez-Mayagoitia, P. Verma, O. Villa, A. Vishnu, K. D. Vogiatzis,
        D. Wang, J. H. Weare, M. J. Williamson, T. L. Windus, K. Woliski,
        A. T. Wong, Q. Wu, C. Yang, Q. Yu, M. Zacharias, Z. Zhang, Y. Zhao,
                                and R. J. Harrison
                        "NWChem: Past, present, and future
                         J. Chem. Phys. 152, 184102 (2020)
                               doi:10.1063/5.0004997

                                      AUTHORS
                                      -------
     E. Apra, E. J. Bylaska, N. Govind, K. Kowalski, M. Valiev, W. A. de Jong,
      T. P. Straatsma, H. J. J. van Dam, D. Wang, T. L. Windus, N. P. Bauman,
       A. Panyala, J. Hammond, J. Autschbach, K. Bhaskaran-Nair, J. Brabec,
    K. Lopata, S. A. Fischer, S. Krishnamoorthy, M. Jacquelin, W. Ma, M. Klemm,
       O. Villa, Y. Chen, V. Anisimov, F. Aquino, S. Hirata, M. T. Hackler,
           Eric Hermes, L. Jensen, J. E. Moore, J. C. Becca, V. Konjkov,
            D. Mejia-Rodriguez, T. Risthaus, M. Malagoli, A. Marenich,
   A. Otero-de-la-Roza, J. Mullin, P. Nichols, R. Peverati, J. Pittner, Y. Zhao,
        P.-D. Fan, A. Fonari, M. J. Williamson, R. J. Harrison, J. R. Rehr,
      M. Dupuis, D. Silverstein, D. M. A. Smith, J. Nieplocha, V. Tipparaju,
      M. Krishnan, B. E. Van Kuiken, A. Vazquez-Mayagoitia, M. Swart, Q. Wu,
   T. Van Voorhis, A. A. Auer, M. Nooijen, L. D. Crosby, E. Brown, G. Cisneros,
     G. I. Fann, H. Fruchtl, J. Garza, K. Hirao, R. A. Kendall, J. A. Nichols,
       K. Tsemekhman, K. Wolinski, J. Anchell, D. E. Bernholdt, P. Borowski,
       T. Clark, D. Clerc, H. Dachsel, M. J. O. Deegan, K. Dyall, D. Elwood,
      E. Glendening, M. Gutowski, A. C. Hess, J. Jaffe, B. G. Johnson, J. Ju,
        R. Kobayashi, R. Kutteh, Z. Lin, R. Littlefield, X. Long, B. Meng,
      T. Nakajima, S. Niu, L. Pollack, M. Rosing, K. Glaesemann, G. Sandrone,
      M. Stave, H. Taylor, G. Thomas, J. H. van Lenthe, A. T. Wong, Z. Zhang.

 Total times  cpu:     1173.8s     wall:     1061.4s
