 argument  1 = CC(=C)Cl_mol_6_conformer_0.nw



============================== echo of input deck ==============================
start

title "Molecule conformer 0"

memory total 4000 mb

echo
geometry units angstroms
   C     -1.1357    -0.0699    -0.0420
   C      0.2764     0.1635     0.4044
   C      1.3009    -0.0919    -0.4145
   Cl     0.5891     0.7796     2.0223
   H     -1.2779    -1.1404    -0.3011
   H     -1.3589     0.5564    -0.9316
   H     -1.8460     0.1972     0.7681
   H      2.3221     0.0781    -0.0884
   H      1.1301    -0.4726    -1.4172
end


basis spherical
* library 6-311G
end

driver
  maxiter 500
  xyz final
end

relativistic
  zora on
  zora:cutoff_NMR 1d-8
  zora:cutoff 1d-30
end

dft
  direct
  grid fine
  xc B3LYP
  mult 1
  maxiter 1500
  noprint "final vectors analysis" multipole
end

task dft optimize

task dft freq

property
  shielding 5 5 6 7 8 9
end

cosmo
   solvent cdcl3
end

task dft property
================================================================================


                                         
                                         


             Northwest Computational Chemistry Package (NWChem) 7.0.2
             --------------------------------------------------------


                    Environmental Molecular Sciences Laboratory
                       Pacific Northwest National Laboratory
                                Richland, WA 99352

                              Copyright (c) 1994-2020
                       Pacific Northwest National Laboratory
                            Battelle Memorial Institute

             NWChem is an open-source computational chemistry package
                        distributed under the terms of the
                      Educational Community License (ECL) 2.0
             A copy of the license is included with this distribution
                              in the LICENSE.TXT file

                                  ACKNOWLEDGMENT
                                  --------------

            This software and its documentation were developed at the
            EMSL at Pacific Northwest National Laboratory, a multiprogram
            national laboratory, operated for the U.S. Department of Energy
            by Battelle under Contract Number DE-AC05-76RL01830. Support
            for this work was provided by the Department of Energy Office
            of Biological and Environmental Research, Office of Basic
            Energy Sciences, and the Office of Advanced Scientific Computing.


           Job information
           ---------------

    hostname        = ponder
    program         = nwchem
    date            = Tue Aug  6 12:47:30 2024

    compiled        = Sat_Apr_09_17:12:10_2022
    source          = /build/nwchem-f1f4gx/nwchem-7.0.2/build-openmpi
    nwchem branch   = 7.0.2
    nwchem revision = N/A
    ga revision     = 5.8.1
    use scalapack   = T
    input           = CC(=C)Cl_mol_6_conformer_0.nw
    prefix          = CC(=C)Cl_mol_6_conformer_0.
    data base       = ./CC(=C)Cl_mol_6_conformer_0.db
    status          = startup
    nproc           =       40
    time left       =     -1s



           Memory information
           ------------------

    heap     =  131071994 doubles =   1000.0 Mbytes
    stack    =  131071999 doubles =   1000.0 Mbytes
    global   =  262144000 doubles =   2000.0 Mbytes (distinct from heap & stack)
    total    =  524287993 doubles =   4000.0 Mbytes
    verify   = yes
    hardfail = no 


           Directory information
           ---------------------

  0 permanent = .
  0 scratch   = .




                                NWChem Input Module
                                -------------------


                               Molecule conformer 0
                               --------------------

 Scaling coordinates for geometry "geometry" by  1.889725989
 (inverse scale =  0.529177249)

 CS  symmetry detected

          ------
          auto-z
          ------
  no constraints, skipping    0.0000000000000000     
  no constraints, skipping    0.0000000000000000     


                             Geometry "geometry" -> ""
                             -------------------------

 Output coordinates in angstroms (scale by  1.889725989 to convert to a.u.)

  No.       Tag          Charge          X              Y              Z
 ---- ---------------- ---------- -------------- -------------- --------------
    1 C                    6.0000    -1.11609530     1.28384832     0.00000000
    2 C                    6.0000     0.10375351     0.41221549     0.00000000
    3 C                    6.0000     1.32637768     0.95130430     0.00000000
    4 Cl                  17.0000    -0.07487757    -1.33794217     0.00000000
    5 H                    1.0000    -1.12131127     1.92615543    -0.90598310
    6 H                    1.0000    -1.12131127     1.92615543     0.90598310
    7 H                    1.0000    -2.03535038     0.66167423     0.00000000
    8 H                    1.0000     2.20757916     0.31760516     0.00000000
    9 H                    1.0000     1.45909712     2.02921802     0.00000000

      Atomic Mass 
      ----------- 

      C                 12.000000
      Cl                34.968850
      H                  1.007825


 Effective nuclear repulsion energy (a.u.)     147.8099297144

            Nuclear Dipole moment (a.u.) 
            ----------------------------
        X                 Y               Z
 ---------------- ---------------- ----------------
     0.0000000000     0.0000000000     0.0000000000

      Symmetry information
      --------------------

 Group name             Cs        
 Group number              2
 Group order               2
 No. of unique centers     8

      Symmetry unique atoms

     1    2    3    4    5    7    8    9



                                Z-matrix (autoz)
                                -------- 

 Units are Angstrom for bonds and degrees for angles

      Type          Name      I     J     K     L     M      Value
      ----------- --------  ----- ----- ----- ----- ----- ----------
    1 Stretch                  1     2                       1.49926
    2 Stretch                  1     5                       1.11058
    3 Stretch                  1     6                       1.11058
    4 Stretch                  1     7                       1.11001
    5 Stretch                  2     3                       1.33620
    6 Stretch                  2     4                       1.75925
    7 Stretch                  3     8                       1.08540
    8 Stretch                  3     9                       1.08605
    9 Bend                     1     2     3               120.65860
   10 Bend                     1     2     4               119.71963
   11 Bend                     2     1     5               109.88062
   12 Bend                     2     1     6               109.88062
   13 Bend                     2     1     7               110.36152
   14 Bend                     2     3     8               120.48492
   15 Bend                     2     3     9               120.81329
   16 Bend                     3     2     4               119.62176
   17 Bend                     5     1     6               109.32787
   18 Bend                     5     1     7               108.68003
   19 Bend                     6     1     7               108.68003
   20 Bend                     8     3     9               118.70179
   21 Torsion                  1     2     3     8         180.00000
   22 Torsion                  1     2     3     9           0.00000
   23 Torsion                  3     2     1     5          60.16622
   24 Torsion                  3     2     1     6         -60.16622
   25 Torsion                  3     2     1     7         180.00000
   26 Torsion                  4     2     1     5        -119.83378
   27 Torsion                  4     2     1     6         119.83378
   28 Torsion                  4     2     1     7           0.00000
   29 Torsion                  4     2     3     8           0.00000
   30 Torsion                  4     2     3     9         180.00000


            XYZ format geometry
            -------------------
     9
 geometry
 C                    -1.11609530     1.28384832     0.00000000
 C                     0.10375351     0.41221549     0.00000000
 C                     1.32637768     0.95130430     0.00000000
 Cl                   -0.07487757    -1.33794217     0.00000000
 H                    -1.12131127     1.92615543    -0.90598310
 H                    -1.12131127     1.92615543     0.90598310
 H                    -2.03535038     0.66167423     0.00000000
 H                     2.20757916     0.31760516     0.00000000
 H                     1.45909712     2.02921802     0.00000000

 ==============================================================================
                                internuclear distances
 ------------------------------------------------------------------------------
       center one      |      center two      | atomic units |  angstroms
 ------------------------------------------------------------------------------
    2 C                |   1 C                |     2.83319  |     1.49926
    3 C                |   2 C                |     2.52505  |     1.33620
    4 Cl               |   2 C                |     3.32450  |     1.75925
    5 H                |   1 C                |     2.09869  |     1.11058
    6 H                |   1 C                |     2.09869  |     1.11058
    7 H                |   1 C                |     2.09762  |     1.11001
    8 H                |   3 C                |     2.05111  |     1.08540
    9 H                |   3 C                |     2.05234  |     1.08605
 ------------------------------------------------------------------------------
                         number of included internuclear distances:          8
 ==============================================================================



 ==============================================================================
                                 internuclear angles
 ------------------------------------------------------------------------------
        center 1       |       center 2       |       center 3       |  degrees
 ------------------------------------------------------------------------------
    2 C                |   1 C                |   5 H                |   109.88
    2 C                |   1 C                |   6 H                |   109.88
    2 C                |   1 C                |   7 H                |   110.36
    5 H                |   1 C                |   6 H                |   109.33
    5 H                |   1 C                |   7 H                |   108.68
    6 H                |   1 C                |   7 H                |   108.68
    1 C                |   2 C                |   3 C                |   120.66
    1 C                |   2 C                |   4 Cl               |   119.72
    3 C                |   2 C                |   4 Cl               |   119.62
    2 C                |   3 C                |   8 H                |   120.48
    2 C                |   3 C                |   9 H                |   120.81
    8 H                |   3 C                |   9 H                |   118.70
 ------------------------------------------------------------------------------
                            number of included internuclear angles:         12
 ==============================================================================





 Summary of "ao basis" -> "" (spherical)
 ------------------------------------------------------------------------------
       Tag                 Description            Shells   Functions and Types
 ---------------- ------------------------------  ------  ---------------------
 *                           6-311G                   on all atoms 




                           NWChem Geometry Optimization
                           ----------------------------




                               Molecule conformer 0


  no constraints, skipping    0.0000000000000000     
 maximum gradient threshold         (gmax) =   0.000450
 rms gradient threshold             (grms) =   0.000300
 maximum cartesian step threshold   (xmax) =   0.001800
 rms cartesian step threshold       (xrms) =   0.001200
 fixed trust radius                (trust) =   0.300000
 maximum step size to saddle      (sadstp) =   0.100000
 energy precision                  (eprec) =   5.0D-06
 maximum number of steps          (nptopt) =  500
 initial hessian option           (inhess) =    0
 line search option               (linopt) =    1
 hessian update option            (modupd) =    1
 saddle point option              (modsad) =    0
 initial eigen-mode to follow     (moddir) =    0
 initial variable to follow       (vardir) =    0
 follow first negative mode     (firstneg) =    T
 apply conjugacy                    (opcg) =    F
 source of zmatrix                         =   autoz   


          -------------------
          Energy Minimization
          -------------------


 Names of Z-matrix variables 
    1              2              3              4              5         
    6              7              8              9             10         
   11             12             13             14             15         
   16             17             18             19             20         
   21             22             23             24             25         
   26             27             28             29             30         

 Variables with the same non-blank name are constrained to be equal


 Using diagonal initial Hessian 
 Scaling for Hessian diagonals: bonds = 1.00  angles = 0.25  torsions = 0.10

          --------
          Step   0
          --------


                         Geometry "geometry" -> "geometry"
                         ---------------------------------

 Output coordinates in angstroms (scale by  1.889725989 to convert to a.u.)

  No.       Tag          Charge          X              Y              Z
 ---- ---------------- ---------- -------------- -------------- --------------
    1 C                    6.0000    -1.11609530     1.28384832     0.00000000
    2 C                    6.0000     0.10375351     0.41221549     0.00000000
    3 C                    6.0000     1.32637768     0.95130430     0.00000000
    4 Cl                  17.0000    -0.07487757    -1.33794217     0.00000000
    5 H                    1.0000    -1.12131127     1.92615543    -0.90598310
    6 H                    1.0000    -1.12131127     1.92615543     0.90598310
    7 H                    1.0000    -2.03535038     0.66167423     0.00000000
    8 H                    1.0000     2.20757916     0.31760516     0.00000000
    9 H                    1.0000     1.45909712     2.02921802     0.00000000

      Atomic Mass 
      ----------- 

      C                 12.000000
      Cl                34.968850
      H                  1.007825


 Effective nuclear repulsion energy (a.u.)     147.8099297144

            Nuclear Dipole moment (a.u.) 
            ----------------------------
        X                 Y               Z
 ---------------- ---------------- ----------------
     0.0000000000     0.0000000000     0.0000000000

      Symmetry information
      --------------------

 Group name             Cs        
 Group number              2
 Group order               2
 No. of unique centers     8

      Symmetry unique atoms

     1    2    3    4    5    7    8    9


                                 NWChem DFT Module
                                 -----------------


                               Molecule conformer 0


                      Basis "ao basis" -> "ao basis" (spherical)
                      -----
  C (Carbon)
  ----------
            Exponent  Coefficients 
       -------------- ---------------------------------------------------------
  1 S  4.56324000E+03  0.001967
  1 S  6.82024000E+02  0.015231
  1 S  1.54973000E+02  0.076127
  1 S  4.44553000E+01  0.260801
  1 S  1.30290000E+01  0.616462
  1 S  1.82773000E+00  0.221006

  2 S  2.09642000E+01  0.114660
  2 S  4.80331000E+00  0.919999
  2 S  1.45933000E+00 -0.003031

  3 P  2.09642000E+01  0.040249
  3 P  4.80331000E+00  0.237594
  3 P  1.45933000E+00  0.815854

  4 S  4.83456000E-01  1.000000

  5 P  4.83456000E-01  1.000000

  6 S  1.45585000E-01  1.000000

  7 P  1.45585000E-01  1.000000

  Cl (Chlorine)
  -------------
            Exponent  Coefficients 
       -------------- ---------------------------------------------------------
  1 S  1.05819000E+05  0.000738
  1 S  1.58720000E+04  0.005718
  1 S  3.61965000E+03  0.029495
  1 S  1.03080000E+03  0.117286
  1 S  3.39908000E+02  0.362949
  1 S  1.24538000E+02  0.584149

  2 S  1.24538000E+02  0.134177
  2 S  4.95135000E+01  0.624250
  2 S  2.08056000E+01  0.291756

  3 S  6.58346000E+00  1.000000

  4 S  2.56468000E+00  1.000000

  5 S  5.59763000E-01  1.000000

  6 S  1.83273000E-01  1.000000

  7 P  5.89776000E+02  0.002391
  7 P  1.39849000E+02  0.018504
  7 P  4.51413000E+01  0.081377
  7 P  1.68733000E+01  0.221552
  7 P  6.74110000E+00  0.772569

  8 P  6.74110000E+00 -1.572244
  8 P  2.77152000E+00  0.992389

  9 P  1.02387000E+00  1.000000

 10 P  3.81368000E-01  1.000000

 11 P  1.09437000E-01  1.000000

  H (Hydrogen)
  ------------
            Exponent  Coefficients 
       -------------- ---------------------------------------------------------
  1 S  3.38650000E+01  0.025494
  1 S  5.09479000E+00  0.190373
  1 S  1.15879000E+00  0.852161

  2 S  3.25840000E-01  1.000000

  3 S  1.02741000E-01  1.000000



 Summary of "ao basis" -> "ao basis" (spherical)
 ------------------------------------------------------------------------------
       Tag                 Description            Shells   Functions and Types
 ---------------- ------------------------------  ------  ---------------------
 C                           6-311G                  7       13   4s3p
 Cl                          6-311G                 11       21   6s5p
 H                           6-311G                  3        3   3s




 Summary of "ao basis" -> "ao basis" (spherical)
 ------------------------------------------------------------------------------
       Tag                 Description            Shells   Functions and Types
 ---------------- ------------------------------  ------  ---------------------
 C                           6-311G                  7       13   4s3p
 Cl                          6-311G                 11       21   6s5p
 H                           6-311G                  3        3   3s


      Symmetry analysis of basis
      --------------------------

        a'         58
        a"         17

  Caching 1-el integrals 

            General Information
            -------------------
          SCF calculation type: DFT
          Wavefunction type:  closed shell.
          No. of atoms     :     9
          No. of electrons :    40
           Alpha electrons :    20
            Beta electrons :    20
          Charge           :     0
          Spin multiplicity:     1
          Use of symmetry is: on ; symmetry adaption is: on 
          Maximum number of iterations: ***
          This is a Direct SCF calculation.
          AO basis - number of functions:    75
                     number of shells:    47
          Convergence on energy requested:  1.00D-06
          Convergence on density requested:  1.00D-05
          Convergence on gradient requested:  5.00D-04

              XC Information
              --------------
                         B3LYP Method XC Potential
                     Hartree-Fock (Exact) Exchange  0.200          
                        Slater Exchange Functional  0.800 local    
                    Becke 1988 Exchange Functional  0.720 non-local
              Lee-Yang-Parr Correlation Functional  0.810          
                  VWN I RPA Correlation Functional  0.190 local    

             Grid Information
             ----------------
          Grid used for XC integration:  fine      
          Radial quadrature: Mura-Knowles        
          Angular quadrature: Lebedev. 
          Tag              B.-S. Rad. Rad. Pts. Rad. Cut. Ang. Pts.
          ---              ---------- --------- --------- ---------
          C                   0.70       70          11.0       590
          Cl                  1.00      123          11.0       770
          H                   0.35       60          12.0       590
          Grid pruning is: on 
          Number of quadrature shells:   573
          Spatial weights used:  Erf1

          Convergence Information
          -----------------------
          Convergence aids based upon iterative change in 
          total energy or number of iterations. 
          Levelshifting, if invoked, occurs when the 
          HOMO/LUMO gap drops below (HL_TOL):  1.00D-02
          DIIS, if invoked, will attempt to extrapolate 
          using up to (NFOCK): 10 stored Fock matrices.

                    Damping( 0%)  Levelshifting(0.5)       DIIS
                  --------------- ------------------- ---------------
          dE  on:    start            ASAP                start   
          dE off:    2 iters        *** iters           *** iters 


      Screening Tolerance Information
      -------------------------------
          Density screening/tol_rho:  1.00D-10
          AO Gaussian exp screening on grid/accAOfunc:  14
          CD Gaussian exp screening on grid/accCDfunc:  20
          XC Gaussian exp screening on grid/accXCfunc:  20
          Schwarz screening/accCoul:  1.00D-08

          Performing ZORA calculations
          ----------------------------


      Superposition of Atomic Density Guess
      -------------------------------------

 Sum of atomic energies:        -574.98156165

 Read atomic ZORA corrections from ./CC(=C)Cl_mol_6_conformer_0.zora_sf

 dft_zora_read: failed to open./CC(=C)Cl_mol_6_conformer_0.zora_sf
 Forcing recalculation of ZORA corrections
       Generating atomic ZORA corrections
       ----------------------------------

 In dft_scf:: zora:Knucl= F

 Grid_pts file          = ./CC(=C)Cl_mol_6_conformer_0.gridpts.00
 Record size in doubles =  12289        No. of grid_pts per rec  =   3070
 Max. records in memory =      5        Max. recs in file   =     13486


 Wrote atomic ZORA corrections to ./CC(=C)Cl_mol_6_conformer_0.zora_sf


      Superposition of Atomic Density Guess
      -------------------------------------

 Sum of atomic energies:        -574.98156165

      Non-variational initial energy
      ------------------------------

 Total energy =    -577.070841
 1-e energy   =   -1082.059005
 2-e energy   =     357.178235
 HOMO         =      -0.276801
 LUMO         =       0.026834


      Symmetry analysis of molecular orbitals - initial
      -------------------------------------------------

  Numbering of irreducible representations: 

     1 a'          2 a"      

  Orbital symmetries:

     1 a'          2 a'          3 a'          4 a'          5 a'      
     6 a'          7 a'          8 a"          9 a'         10 a'      
    11 a'         12 a'         13 a'         14 a'         15 a"      
    16 a'         17 a"         18 a'         19 a'         20 a"      
    21 a"         22 a'         23 a'         24 a'         25 a'      
    26 a'         27 a"         28 a'         29 a'         30 a"      

   Time after variat. SCF:      6.7
   Time prior to 1st pass:      6.7

           Memory utilization after 1st SCF pass: 
           Heap Space remaining (MW):      131.01           131006386
          Stack Space remaining (MW):      131.06           131060060

   convergence    iter        energy       DeltaE   RMS-Dens  Diis-err    time
 ---------------- ----- ----------------- --------- --------- ---------  ------
 d= 0,ls=0.0,diis     1   -579.6365791151 -7.27D+02  1.48D-02  3.77D+01     9.0
 d= 0,ls=0.0,diis     2   -579.6387756554 -2.20D-03  2.10D-02  8.01D-01    11.3
 d= 0,ls=0.0,diis     3   -579.4782675008  1.61D-01  1.30D-02  1.80D+00    13.9
 d= 0,ls=0.0,diis     4   -579.7334893655 -2.55D-01  1.49D-03  1.33D-02    16.3
 d= 0,ls=0.0,diis     5   -579.7348889625 -1.40D-03  7.51D-04  3.04D-03    18.3
  Resetting Diis
 d= 0,ls=0.0,diis     6   -579.7352960055 -4.07D-04  9.45D-05  6.31D-05    20.6
 d= 0,ls=0.0,diis     7   -579.7353019345 -5.93D-06  5.21D-05  4.17D-06    22.5
 d= 0,ls=0.0,diis     8   -579.7353016283  3.06D-07  2.59D-05  6.78D-06    24.7
 d= 0,ls=0.0,diis     9   -579.7353024849 -8.57D-07  4.06D-06  2.30D-07    26.6
(nogshift,skip_gshiftAOev,done_Fji)=( 1,F,F)


         Total DFT energy =     -579.735302484860
      One electron energy =    -1087.837179673344
           Coulomb energy =      406.774402462585
    Exchange-Corr. energy =      -46.482454988520
 Nuclear repulsion energy =      147.809929714419

       Scaling correction =        0.810184758777

 Numeric. integr. density =       40.000000525238

     Total iterative time =     20.1s



                  Occupations of the irreducible representations
                  ----------------------------------------------

                     irrep           alpha         beta
                     --------     --------     --------
                     a'               16.0         16.0
                     a"                4.0          4.0


 center of mass
 --------------
 x =   0.01327563 y =  -0.20146810 z =   0.00000000

 moments of inertia (a.u.)
 ------------------
         386.521196370352          -0.000000004108           0.000000000000
          -0.000000004108         184.987862680411           0.000000000000
           0.000000000000           0.000000000000         559.692719023427

            General Information
            -------------------
          SCF calculation type: DFT
          Wavefunction type:  closed shell.
          No. of atoms     :     9
          No. of electrons :    40
           Alpha electrons :    20
            Beta electrons :    20
          Charge           :     0
          Spin multiplicity:     1
          Use of symmetry is: on ; symmetry adaption is: on 
          Maximum number of iterations: ***
          This is a Direct SCF calculation.
          AO basis - number of functions:    75
                     number of shells:    47
          Convergence on energy requested:  1.00D-06
          Convergence on density requested:  1.00D-05
          Convergence on gradient requested:  5.00D-04

              XC Information
              --------------
                         B3LYP Method XC Potential
                     Hartree-Fock (Exact) Exchange  0.200          
                        Slater Exchange Functional  0.800 local    
                    Becke 1988 Exchange Functional  0.720 non-local
              Lee-Yang-Parr Correlation Functional  0.810          
                  VWN I RPA Correlation Functional  0.190 local    

             Grid Information
             ----------------
          Grid used for XC integration:  fine      
          Radial quadrature: Mura-Knowles        
          Angular quadrature: Lebedev. 
          Tag              B.-S. Rad. Rad. Pts. Rad. Cut. Ang. Pts.
          ---              ---------- --------- --------- ---------
          C                   0.70       70          11.0       590
          Cl                  1.00      123          11.0       770
          H                   0.35       60          12.0       590
          Grid pruning is: on 
          Number of quadrature shells:   573
          Spatial weights used:  Erf1

          Convergence Information
          -----------------------
          Convergence aids based upon iterative change in 
          total energy or number of iterations. 
          Levelshifting, if invoked, occurs when the 
          HOMO/LUMO gap drops below (HL_TOL):  1.00D-02
          DIIS, if invoked, will attempt to extrapolate 
          using up to (NFOCK): 10 stored Fock matrices.

                    Damping( 0%)  Levelshifting(0.5)       DIIS
                  --------------- ------------------- ---------------
          dE  on:    start            ASAP                start   
          dE off:    2 iters        *** iters           *** iters 


      Screening Tolerance Information
      -------------------------------
          Density screening/tol_rho:  1.00D-10
          AO Gaussian exp screening on grid/accAOfunc:  14
          CD Gaussian exp screening on grid/accCDfunc:  20
          XC Gaussian exp screening on grid/accXCfunc:  20
          Schwarz screening/accCoul:  1.00D-08



                            NWChem DFT Gradient Module
                            --------------------------


                               Molecule conformer 0



  charge          =   0.00
  wavefunction    = closed shell

  Using symmetry


                         DFT ENERGY GRADIENTS

    atom               coordinates                        gradient
                 x          y          z           x          y          z
   1 C      -2.109114   2.426122   0.000000    0.019114   0.004629   0.000000
   2 C       0.196066   0.778974   0.000000   -0.021343  -0.044526   0.000000
   3 C       2.506490   1.797704   0.000000   -0.002288   0.012895   0.000000
   4 Cl     -0.141498  -2.528344   0.000000    0.007626   0.027435   0.000000
   5 H      -2.118971   3.639906  -1.712060    0.002280   0.006215  -0.010870
   6 H      -2.118971   3.639906   1.712060    0.002280   0.006215   0.010870
   7 H      -3.846255   1.250383   0.000000   -0.008445  -0.011117   0.000000
   8 H       4.171720   0.600187   0.000000    0.000314  -0.005088   0.000000
   9 H       2.757294   3.834666   0.000000    0.000463   0.003343   0.000000

                 ----------------------------------------
                 |  Time  |  1-e(secs)   |  2-e(secs)   |
                 ----------------------------------------
                 |  CPU   |       0.00   |       0.10   |
                 ----------------------------------------
                 |  WALL  |       0.00   |       0.10   |
                 ----------------------------------------
  no constraints, skipping    0.0000000000000000     

@ Step       Energy      Delta E   Gmax     Grms     Xrms     Xmax   Walltime
@ ---- ---------------- -------- -------- -------- -------- -------- --------
@    0    -579.73530248  0.0D+00  0.02807  0.00728  0.00000  0.00000     28.7
                                                                    



                                Z-matrix (autoz)
                                -------- 

 Units are Angstrom for bonds and degrees for angles

      Type          Name      I     J     K     L     M      Value     Gradient
      ----------- --------  ----- ----- ----- ----- ----- ---------- ----------
    1 Stretch                  1     2                       1.49926   -0.00894
    2 Stretch                  1     5                       1.11058    0.01245
    3 Stretch                  1     6                       1.11058    0.01245
    4 Stretch                  1     7                       1.11001    0.01322
    5 Stretch                  2     3                       1.33620    0.00312
    6 Stretch                  2     4                       1.75925   -0.02807
    7 Stretch                  3     8                       1.08540    0.00323
    8 Stretch                  3     9                       1.08605    0.00337
    9 Bend                     1     2     3               120.65860   -0.00955
   10 Bend                     1     2     4               119.71963    0.00900
   11 Bend                     2     1     5               109.88062   -0.00117
   12 Bend                     2     1     6               109.88062   -0.00117
   13 Bend                     2     1     7               110.36152   -0.00295
   14 Bend                     2     3     8               120.48492   -0.00287
   15 Bend                     2     3     9               120.81329    0.00147
   16 Bend                     3     2     4               119.62176    0.00055
   17 Bend                     5     1     6               109.32787    0.00144
   18 Bend                     5     1     7               108.68003    0.00198
   19 Bend                     6     1     7               108.68003    0.00198
   20 Bend                     8     3     9               118.70179    0.00141
   21 Torsion                  1     2     3     8         180.00000    0.00000
   22 Torsion                  1     2     3     9           0.00000   -0.00000
   23 Torsion                  3     2     1     5          60.16622    0.00015
   24 Torsion                  3     2     1     6         -60.16622   -0.00015
   25 Torsion                  3     2     1     7         180.00000    0.00000
   26 Torsion                  4     2     1     5        -119.83378    0.00015
   27 Torsion                  4     2     1     6         119.83378   -0.00015
   28 Torsion                  4     2     1     7           0.00000   -0.00000
   29 Torsion                  4     2     3     8           0.00000   -0.00000
   30 Torsion                  4     2     3     9         180.00000    0.00000

  no constraints, skipping    0.0000000000000000     
  no constraints, skipping    0.0000000000000000     
  no constraints, skipping    0.0000000000000000     
  no constraints, skipping    0.0000000000000000     
  no constraints, skipping    0.0000000000000000     
  no constraints, skipping    0.0000000000000000     
  no constraints, skipping    0.0000000000000000     
  no constraints, skipping    0.0000000000000000     

                                 NWChem DFT Module
                                 -----------------


                               Molecule conformer 0




 Summary of "ao basis" -> "ao basis" (spherical)
 ------------------------------------------------------------------------------
       Tag                 Description            Shells   Functions and Types
 ---------------- ------------------------------  ------  ---------------------
 C                           6-311G                  7       13   4s3p
 Cl                          6-311G                 11       21   6s5p
 H                           6-311G                  3        3   3s


      Symmetry analysis of basis
      --------------------------

        a'         58
        a"         17

  Caching 1-el integrals 

            General Information
            -------------------
          SCF calculation type: DFT
          Wavefunction type:  closed shell.
          No. of atoms     :     9
          No. of electrons :    40
           Alpha electrons :    20
            Beta electrons :    20
          Charge           :     0
          Spin multiplicity:     1
          Use of symmetry is: on ; symmetry adaption is: on 
          Maximum number of iterations: ***
          This is a Direct SCF calculation.
          AO basis - number of functions:    75
                     number of shells:    47
          Convergence on energy requested:  1.00D-06
          Convergence on density requested:  1.00D-05
          Convergence on gradient requested:  5.00D-04

              XC Information
              --------------
                         B3LYP Method XC Potential
                     Hartree-Fock (Exact) Exchange  0.200          
                        Slater Exchange Functional  0.800 local    
                    Becke 1988 Exchange Functional  0.720 non-local
              Lee-Yang-Parr Correlation Functional  0.810          
                  VWN I RPA Correlation Functional  0.190 local    

             Grid Information
             ----------------
          Grid used for XC integration:  fine      
          Radial quadrature: Mura-Knowles        
          Angular quadrature: Lebedev. 
          Tag              B.-S. Rad. Rad. Pts. Rad. Cut. Ang. Pts.
          ---              ---------- --------- --------- ---------
          C                   0.70       70          11.0       590
          Cl                  1.00      123          11.0       770
          H                   0.35       60          12.0       590
          Grid pruning is: on 
          Number of quadrature shells:   573
          Spatial weights used:  Erf1

          Convergence Information
          -----------------------
          Convergence aids based upon iterative change in 
          total energy or number of iterations. 
          Levelshifting, if invoked, occurs when the 
          HOMO/LUMO gap drops below (HL_TOL):  1.00D-02
          DIIS, if invoked, will attempt to extrapolate 
          using up to (NFOCK): 10 stored Fock matrices.

                    Damping( 0%)  Levelshifting(0.5)       DIIS
                  --------------- ------------------- ---------------
          dE  on:    start            ASAP                start   
          dE off:    2 iters        *** iters           *** iters 


      Screening Tolerance Information
      -------------------------------
          Density screening/tol_rho:  1.00D-10
          AO Gaussian exp screening on grid/accAOfunc:  14
          CD Gaussian exp screening on grid/accCDfunc:  20
          XC Gaussian exp screening on grid/accXCfunc:  20
          Schwarz screening/accCoul:  1.00D-08

          Performing ZORA calculations
          ----------------------------


      Superposition of Atomic Density Guess
      -------------------------------------

 Sum of atomic energies:        -574.98156165

 Read atomic ZORA corrections from ./CC(=C)Cl_mol_6_conformer_0.zora_sf

 Forcing recalculation of ZORA corrections
       Generating atomic ZORA corrections
       ----------------------------------

 In dft_scf:: zora:Knucl= F

 Grid_pts file          = ./CC(=C)Cl_mol_6_conformer_0.gridpts.00
 Record size in doubles =  12289        No. of grid_pts per rec  =   3070
 Max. records in memory =      5        Max. recs in file   =     13486


 Wrote atomic ZORA corrections to ./CC(=C)Cl_mol_6_conformer_0.zora_sf


 Loading old vectors from job with title :

Molecule conformer 0


      Symmetry analysis of molecular orbitals - initial
      -------------------------------------------------

  Numbering of irreducible representations: 

     1 a'          2 a"      

  Orbital symmetries:

     1 a'          2 a'          3 a'          4 a'          5 a'      
     6 a'          7 a"          8 a'          9 a'         10 a'      
    11 a'         12 a'         13 a'         14 a'         15 a"      
    16 a'         17 a'         18 a"         19 a'         20 a"      
    21 a"         22 a'         23 a'         24 a'         25 a'      
    26 a'         27 a"         28 a'         29 a'         30 a"      

   Time after variat. SCF:     35.6
   Time prior to 1st pass:     35.6

           Memory utilization after 1st SCF pass: 
           Heap Space remaining (MW):      131.01           131006386
          Stack Space remaining (MW):      131.06           131060060

   convergence    iter        energy       DeltaE   RMS-Dens  Diis-err    time
 ---------------- ----- ----------------- --------- --------- ---------  ------
 d= 0,ls=0.0,diis     1   -579.7378428359 -7.27D+02  2.03D-03  9.18D-03    37.3
 d= 0,ls=0.0,diis     2   -579.7395292178 -1.69D-03  5.75D-04  1.87D-03    40.0
 d= 0,ls=0.0,diis     3   -579.7395497847 -2.06D-05  3.72D-04  1.67D-03    42.4
 d= 0,ls=0.0,diis     4   -579.7397395253 -1.90D-04  1.08D-04  1.39D-04    44.8
 d= 0,ls=0.0,diis     5   -579.7397581006 -1.86D-05  1.61D-05  1.54D-06    47.3
 d= 0,ls=0.0,diis     6   -579.7397582948 -1.94D-07  3.75D-06  2.03D-08    49.4
(nogshift,skip_gshiftAOev,done_Fji)=( 1,F,F)


         Total DFT energy =     -579.739758294795
      One electron energy =    -1085.814544981958
           Coulomb energy =      405.786060685963
    Exchange-Corr. energy =      -46.487817362825
 Nuclear repulsion energy =      146.776543364024

       Scaling correction =        0.810131212453

 Numeric. integr. density =       40.000000524957

     Total iterative time =     13.9s



                  Occupations of the irreducible representations
                  ----------------------------------------------

                     irrep           alpha         beta
                     --------     --------     --------
                     a'               16.0         16.0
                     a"                4.0          4.0


 center of mass
 --------------
 x =  -0.00340330 y =  -0.18605254 z =   0.00000000

 moments of inertia (a.u.)
 ------------------
         384.804328490273          -6.412750104868           0.000000000000
          -6.412750104868         194.461992565090           0.000000000000
           0.000000000000           0.000000000000         567.989168872800
 Line search: 
     step= 1.00 grad=-7.2D-03 hess= 2.7D-03 energy=   -579.739758 mode=downhill
 new step= 1.32                   predicted energy=   -579.740036
  no constraints, skipping    0.0000000000000000     
  no constraints, skipping    0.0000000000000000     
  no constraints, skipping    0.0000000000000000     
  no constraints, skipping    0.0000000000000000     
  no constraints, skipping    0.0000000000000000     
  no constraints, skipping    0.0000000000000000     
  no constraints, skipping    0.0000000000000000     
  no constraints, skipping    0.0000000000000000     

          --------
          Step   1
          --------


                         Geometry "geometry" -> "geometry"
                         ---------------------------------

 Output coordinates in angstroms (scale by  1.889725989 to convert to a.u.)

  No.       Tag          Charge          X              Y              Z
 ---- ---------------- ---------- -------------- -------------- --------------
    1 C                    6.0000    -1.14202776     1.27909919     0.00000000
    2 C                    6.0000     0.13729987     0.46709631     0.00000000
    3 C                    6.0000     1.37984030     0.94738190     0.00000000
    4 Cl                  17.0000    -0.12135322    -1.32795681     0.00000000
    5 H                    1.0000    -1.19504986     1.91284075    -0.87841062
    6 H                    1.0000    -1.19504986     1.91284075     0.87841062
    7 H                    1.0000    -2.02799720     0.65746903     0.00000000
    8 H                    1.0000     2.24842341     0.30729962     0.00000000
    9 H                    1.0000     1.54377599     2.01416347     0.00000000

      Atomic Mass 
      ----------- 

      C                 12.000000
      Cl                34.968850
      H                  1.007825


 Effective nuclear repulsion energy (a.u.)     146.4757126771

            Nuclear Dipole moment (a.u.) 
            ----------------------------
        X                 Y               Z
 ---------------- ---------------- ----------------
    -0.8281303439     0.7385280520     0.0000000000

      Symmetry information
      --------------------

 Group name             Cs        
 Group number              2
 Group order               2
 No. of unique centers     8

      Symmetry unique atoms

     1    2    3    4    5    7    8    9


                                 NWChem DFT Module
                                 -----------------


                               Molecule conformer 0




 Summary of "ao basis" -> "ao basis" (spherical)
 ------------------------------------------------------------------------------
       Tag                 Description            Shells   Functions and Types
 ---------------- ------------------------------  ------  ---------------------
 C                           6-311G                  7       13   4s3p
 Cl                          6-311G                 11       21   6s5p
 H                           6-311G                  3        3   3s


      Symmetry analysis of basis
      --------------------------

        a'         58
        a"         17

  Caching 1-el integrals 

            General Information
            -------------------
          SCF calculation type: DFT
          Wavefunction type:  closed shell.
          No. of atoms     :     9
          No. of electrons :    40
           Alpha electrons :    20
            Beta electrons :    20
          Charge           :     0
          Spin multiplicity:     1
          Use of symmetry is: on ; symmetry adaption is: on 
          Maximum number of iterations: ***
          This is a Direct SCF calculation.
          AO basis - number of functions:    75
                     number of shells:    47
          Convergence on energy requested:  1.00D-06
          Convergence on density requested:  1.00D-05
          Convergence on gradient requested:  5.00D-04

              XC Information
              --------------
                         B3LYP Method XC Potential
                     Hartree-Fock (Exact) Exchange  0.200          
                        Slater Exchange Functional  0.800 local    
                    Becke 1988 Exchange Functional  0.720 non-local
              Lee-Yang-Parr Correlation Functional  0.810          
                  VWN I RPA Correlation Functional  0.190 local    

             Grid Information
             ----------------
          Grid used for XC integration:  fine      
          Radial quadrature: Mura-Knowles        
          Angular quadrature: Lebedev. 
          Tag              B.-S. Rad. Rad. Pts. Rad. Cut. Ang. Pts.
          ---              ---------- --------- --------- ---------
          C                   0.70       70          11.0       590
          Cl                  1.00      123          11.0       770
          H                   0.35       60          12.0       590
          Grid pruning is: on 
          Number of quadrature shells:   573
          Spatial weights used:  Erf1

          Convergence Information
          -----------------------
          Convergence aids based upon iterative change in 
          total energy or number of iterations. 
          Levelshifting, if invoked, occurs when the 
          HOMO/LUMO gap drops below (HL_TOL):  1.00D-02
          DIIS, if invoked, will attempt to extrapolate 
          using up to (NFOCK): 10 stored Fock matrices.

                    Damping( 0%)  Levelshifting(0.5)       DIIS
                  --------------- ------------------- ---------------
          dE  on:    start            ASAP                start   
          dE off:    2 iters        *** iters           *** iters 


      Screening Tolerance Information
      -------------------------------
          Density screening/tol_rho:  1.00D-10
          AO Gaussian exp screening on grid/accAOfunc:  14
          CD Gaussian exp screening on grid/accCDfunc:  20
          XC Gaussian exp screening on grid/accXCfunc:  20
          Schwarz screening/accCoul:  1.00D-08

          Performing ZORA calculations
          ----------------------------


      Superposition of Atomic Density Guess
      -------------------------------------

 Sum of atomic energies:        -574.98156165

 Read atomic ZORA corrections from ./CC(=C)Cl_mol_6_conformer_0.zora_sf

 Forcing recalculation of ZORA corrections
       Generating atomic ZORA corrections
       ----------------------------------

 In dft_scf:: zora:Knucl= F

 Grid_pts file          = ./CC(=C)Cl_mol_6_conformer_0.gridpts.00
 Record size in doubles =  12289        No. of grid_pts per rec  =   3070
 Max. records in memory =      5        Max. recs in file   =     13486


 Wrote atomic ZORA corrections to ./CC(=C)Cl_mol_6_conformer_0.zora_sf


 Loading old vectors from job with title :

Molecule conformer 0


      Symmetry analysis of molecular orbitals - initial
      -------------------------------------------------

  Numbering of irreducible representations: 

     1 a'          2 a"      

  Orbital symmetries:

     1 a'          2 a'          3 a'          4 a'          5 a'      
     6 a'          7 a"          8 a'          9 a'         10 a'      
    11 a'         12 a'         13 a'         14 a'         15 a"      
    16 a'         17 a'         18 a"         19 a'         20 a"      
    21 a"         22 a'         23 a'         24 a'         25 a'      
    26 a"         27 a'         28 a'         29 a'         30 a"      

   Time after variat. SCF:     56.3
   Time prior to 1st pass:     56.3

           Memory utilization after 1st SCF pass: 
           Heap Space remaining (MW):      131.01           131006386
          Stack Space remaining (MW):      131.06           131060060

   convergence    iter        energy       DeltaE   RMS-Dens  Diis-err    time
 ---------------- ----- ----------------- --------- --------- ---------  ------
 d= 0,ls=0.0,diis     1   -579.7398800159 -7.26D+02  6.52D-04  9.07D-04    58.6
 d= 0,ls=0.0,diis     2   -579.7400485828 -1.69D-04  1.78D-04  1.78D-04    60.9
 d= 0,ls=0.0,diis     3   -579.7400507028 -2.12D-06  1.14D-04  1.58D-04    63.2
 d= 0,ls=0.0,diis     4   -579.7400685872 -1.79D-05  3.38D-05  1.33D-05    65.2
 d= 0,ls=0.0,diis     5   -579.7400703685 -1.78D-06  4.95D-06  1.56D-07    67.6
 d= 0,ls=0.0,diis     6   -579.7400703881 -1.96D-08  1.20D-06  1.98D-09    69.7
(nogshift,skip_gshiftAOev,done_Fji)=( 1,F,F)


         Total DFT energy =     -579.740070388104
      One electron energy =    -1085.223861038900
           Coulomb energy =      405.498162705791
    Exchange-Corr. energy =      -46.490084732107
 Nuclear repulsion energy =      146.475712677113

       Scaling correction =        0.810113768790

 Numeric. integr. density =       40.000001380567

     Total iterative time =     13.5s



                  Occupations of the irreducible representations
                  ----------------------------------------------

                     irrep           alpha         beta
                     --------     --------     --------
                     a'               16.0         16.0
                     a"                4.0          4.0


 center of mass
 --------------
 x =  -0.00927432 y =  -0.18040848 z =   0.00000000

 moments of inertia (a.u.)
 ------------------
         384.051205741240          -8.590399251753           0.000000000000
          -8.590399251753         197.527481087939           0.000000000000
           0.000000000000           0.000000000000         570.470633694994

            General Information
            -------------------
          SCF calculation type: DFT
          Wavefunction type:  closed shell.
          No. of atoms     :     9
          No. of electrons :    40
           Alpha electrons :    20
            Beta electrons :    20
          Charge           :     0
          Spin multiplicity:     1
          Use of symmetry is: on ; symmetry adaption is: on 
          Maximum number of iterations: ***
          This is a Direct SCF calculation.
          AO basis - number of functions:    75
                     number of shells:    47
          Convergence on energy requested:  1.00D-06
          Convergence on density requested:  1.00D-05
          Convergence on gradient requested:  5.00D-04

              XC Information
              --------------
                         B3LYP Method XC Potential
                     Hartree-Fock (Exact) Exchange  0.200          
                        Slater Exchange Functional  0.800 local    
                    Becke 1988 Exchange Functional  0.720 non-local
              Lee-Yang-Parr Correlation Functional  0.810          
                  VWN I RPA Correlation Functional  0.190 local    

             Grid Information
             ----------------
          Grid used for XC integration:  fine      
          Radial quadrature: Mura-Knowles        
          Angular quadrature: Lebedev. 
          Tag              B.-S. Rad. Rad. Pts. Rad. Cut. Ang. Pts.
          ---              ---------- --------- --------- ---------
          C                   0.70       70          11.0       590
          Cl                  1.00      123          11.0       770
          H                   0.35       60          12.0       590
          Grid pruning is: on 
          Number of quadrature shells:   573
          Spatial weights used:  Erf1

          Convergence Information
          -----------------------
          Convergence aids based upon iterative change in 
          total energy or number of iterations. 
          Levelshifting, if invoked, occurs when the 
          HOMO/LUMO gap drops below (HL_TOL):  1.00D-02
          DIIS, if invoked, will attempt to extrapolate 
          using up to (NFOCK): 10 stored Fock matrices.

                    Damping( 0%)  Levelshifting(0.5)       DIIS
                  --------------- ------------------- ---------------
          dE  on:    start            ASAP                start   
          dE off:    2 iters        *** iters           *** iters 


      Screening Tolerance Information
      -------------------------------
          Density screening/tol_rho:  1.00D-10
          AO Gaussian exp screening on grid/accAOfunc:  14
          CD Gaussian exp screening on grid/accCDfunc:  20
          XC Gaussian exp screening on grid/accXCfunc:  20
          Schwarz screening/accCoul:  1.00D-08



                            NWChem DFT Gradient Module
                            --------------------------


                               Molecule conformer 0



  charge          =   0.00
  wavefunction    = closed shell

  Using symmetry


                         DFT ENERGY GRADIENTS

    atom               coordinates                        gradient
                 x          y          z           x          y          z
   1 C      -2.158120   2.417147   0.000000   -0.004280   0.004383   0.000000
   2 C       0.259459   0.882684   0.000000   -0.001078  -0.018081   0.000000
   3 C       2.607520   1.790292   0.000000    0.005914   0.006175   0.000000
   4 Cl     -0.229324  -2.509474   0.000000    0.000709   0.012021   0.000000
   5 H      -2.258317   3.614745  -1.659955   -0.000973  -0.002987   0.003719
   6 H      -2.258317   3.614745   1.659955   -0.000973  -0.002987  -0.003719
   7 H      -3.832359   1.242436   0.000000    0.000980   0.003791   0.000000
   8 H       4.248904   0.580712   0.000000   -0.000241  -0.000039   0.000000
   9 H       2.917314   3.806217   0.000000   -0.000058  -0.002277   0.000000

                 ----------------------------------------
                 |  Time  |  1-e(secs)   |  2-e(secs)   |
                 ----------------------------------------
                 |  CPU   |       0.00   |       0.10   |
                 ----------------------------------------
                 |  WALL  |       0.00   |       0.10   |
                 ----------------------------------------
  no constraints, skipping    0.0000000000000000     

  Step       Energy      Delta E   Gmax     Grms     Xrms     Xmax   Walltime
  ---- ---------------- -------- -------- -------- -------- -------- --------
@    1    -579.74007039 -4.8D-03  0.01200  0.00308  0.06461  0.15841     71.9
                                                                    



                                Z-matrix (autoz)
                                -------- 

 Units are Angstrom for bonds and degrees for angles

      Type          Name      I     J     K     L     M      Value     Gradient
      ----------- --------  ----- ----- ----- ----- ----- ---------- ----------
    1 Stretch                  1     2                       1.51526    0.00561
    2 Stretch                  1     5                       1.08446   -0.00471
    3 Stretch                  1     6                       1.08446   -0.00471
    4 Stretch                  1     7                       1.08230   -0.00298
    5 Stretch                  2     3                       1.33213    0.00663
    6 Stretch                  2     4                       1.81359   -0.01200
    7 Stretch                  3     8                       1.07895   -0.00017
    8 Stretch                  3     9                       1.07930   -0.00226
    9 Bend                     1     2     3               126.46300   -0.00045
   10 Bend                     1     2     4               114.20430   -0.00069
   11 Bend                     2     1     5               110.75925    0.00032
   12 Bend                     2     1     6               110.75925    0.00032
   13 Bend                     2     1     7               112.54130    0.00161
   14 Bend                     2     3     8               122.47923   -0.00023
   15 Bend                     2     3     9               119.86975    0.00027
   16 Bend                     3     2     4               119.33271    0.00114
   17 Bend                     5     1     6               108.19208   -0.00023
   18 Bend                     5     1     7               107.19507   -0.00108
   19 Bend                     6     1     7               107.19507   -0.00108
   20 Bend                     8     3     9               117.65102   -0.00004
   21 Torsion                  1     2     3     8         180.00000    0.00000
   22 Torsion                  1     2     3     9           0.00000    0.00000
   23 Torsion                  3     2     1     5          60.02450    0.00006
   24 Torsion                  3     2     1     6         -60.02450   -0.00006
   25 Torsion                  3     2     1     7         180.00000   -0.00000
   26 Torsion                  4     2     1     5        -119.97550    0.00006
   27 Torsion                  4     2     1     6         119.97550   -0.00006
   28 Torsion                  4     2     1     7           0.00000    0.00000
   29 Torsion                  4     2     3     8           0.00000   -0.00000
   30 Torsion                  4     2     3     9         180.00000    0.00000

  no constraints, skipping    0.0000000000000000     
  no constraints, skipping    0.0000000000000000     
  no constraints, skipping    0.0000000000000000     
  no constraints, skipping    0.0000000000000000     
  no constraints, skipping    0.0000000000000000     
  no constraints, skipping    0.0000000000000000     
  no constraints, skipping    0.0000000000000000     
  no constraints, skipping    0.0000000000000000     

                                 NWChem DFT Module
                                 -----------------


                               Molecule conformer 0




 Summary of "ao basis" -> "ao basis" (spherical)
 ------------------------------------------------------------------------------
       Tag                 Description            Shells   Functions and Types
 ---------------- ------------------------------  ------  ---------------------
 C                           6-311G                  7       13   4s3p
 Cl                          6-311G                 11       21   6s5p
 H                           6-311G                  3        3   3s


      Symmetry analysis of basis
      --------------------------

        a'         58
        a"         17

  Caching 1-el integrals 

            General Information
            -------------------
          SCF calculation type: DFT
          Wavefunction type:  closed shell.
          No. of atoms     :     9
          No. of electrons :    40
           Alpha electrons :    20
            Beta electrons :    20
          Charge           :     0
          Spin multiplicity:     1
          Use of symmetry is: on ; symmetry adaption is: on 
          Maximum number of iterations: ***
          This is a Direct SCF calculation.
          AO basis - number of functions:    75
                     number of shells:    47
          Convergence on energy requested:  1.00D-06
          Convergence on density requested:  1.00D-05
          Convergence on gradient requested:  5.00D-04

              XC Information
              --------------
                         B3LYP Method XC Potential
                     Hartree-Fock (Exact) Exchange  0.200          
                        Slater Exchange Functional  0.800 local    
                    Becke 1988 Exchange Functional  0.720 non-local
              Lee-Yang-Parr Correlation Functional  0.810          
                  VWN I RPA Correlation Functional  0.190 local    

             Grid Information
             ----------------
          Grid used for XC integration:  fine      
          Radial quadrature: Mura-Knowles        
          Angular quadrature: Lebedev. 
          Tag              B.-S. Rad. Rad. Pts. Rad. Cut. Ang. Pts.
          ---              ---------- --------- --------- ---------
          C                   0.70       70          11.0       590
          Cl                  1.00      123          11.0       770
          H                   0.35       60          12.0       590
          Grid pruning is: on 
          Number of quadrature shells:   573
          Spatial weights used:  Erf1

          Convergence Information
          -----------------------
          Convergence aids based upon iterative change in 
          total energy or number of iterations. 
          Levelshifting, if invoked, occurs when the 
          HOMO/LUMO gap drops below (HL_TOL):  1.00D-02
          DIIS, if invoked, will attempt to extrapolate 
          using up to (NFOCK): 10 stored Fock matrices.

                    Damping( 0%)  Levelshifting(0.5)       DIIS
                  --------------- ------------------- ---------------
          dE  on:    start            ASAP                start   
          dE off:    2 iters        *** iters           *** iters 


      Screening Tolerance Information
      -------------------------------
          Density screening/tol_rho:  1.00D-10
          AO Gaussian exp screening on grid/accAOfunc:  14
          CD Gaussian exp screening on grid/accCDfunc:  20
          XC Gaussian exp screening on grid/accXCfunc:  20
          Schwarz screening/accCoul:  1.00D-08

          Performing ZORA calculations
          ----------------------------


      Superposition of Atomic Density Guess
      -------------------------------------

 Sum of atomic energies:        -574.98156165

 Read atomic ZORA corrections from ./CC(=C)Cl_mol_6_conformer_0.zora_sf

 Forcing recalculation of ZORA corrections
       Generating atomic ZORA corrections
       ----------------------------------

 In dft_scf:: zora:Knucl= F

 Grid_pts file          = ./CC(=C)Cl_mol_6_conformer_0.gridpts.00
 Record size in doubles =  12289        No. of grid_pts per rec  =   3070
 Max. records in memory =      5        Max. recs in file   =     13486


 Wrote atomic ZORA corrections to ./CC(=C)Cl_mol_6_conformer_0.zora_sf


 Loading old vectors from job with title :

Molecule conformer 0


      Symmetry analysis of molecular orbitals - initial
      -------------------------------------------------

  Numbering of irreducible representations: 

     1 a'          2 a"      

  Orbital symmetries:

     1 a'          2 a'          3 a'          4 a'          5 a'      
     6 a'          7 a"          8 a'          9 a'         10 a'      
    11 a'         12 a'         13 a'         14 a'         15 a"      
    16 a'         17 a'         18 a"         19 a'         20 a"      
    21 a"         22 a'         23 a'         24 a'         25 a'      
    26 a"         27 a'         28 a'         29 a'         30 a"      

   Time after variat. SCF:     79.2
   Time prior to 1st pass:     79.2

           Memory utilization after 1st SCF pass: 
           Heap Space remaining (MW):      131.01           131006386
          Stack Space remaining (MW):      131.06           131060060

   convergence    iter        energy       DeltaE   RMS-Dens  Diis-err    time
 ---------------- ----- ----------------- --------- --------- ---------  ------
 d= 0,ls=0.0,diis     1   -579.7404726634 -7.26D+02  6.17D-04  1.09D-03    81.0
 d= 0,ls=0.0,diis     2   -579.7406763001 -2.04D-04  1.88D-04  6.15D-05    83.7
 d= 0,ls=0.0,diis     3   -579.7406661353  1.02D-05  1.06D-04  1.43D-04    85.8
 d= 0,ls=0.0,diis     4   -579.7406843676 -1.82D-05  1.97D-05  3.07D-06    87.8
 d= 0,ls=0.0,diis     5   -579.7406847381 -3.70D-07  4.15D-06  3.64D-07    90.8
(nogshift,skip_gshiftAOev,done_Fji)=( 1,F,F)


         Total DFT energy =     -579.740684738055
      One electron energy =    -1084.399742676168
           Coulomb energy =      405.091514664914
    Exchange-Corr. energy =      -46.484153959881
 Nuclear repulsion energy =      146.051697233080

       Scaling correction =        0.810095148901

 Numeric. integr. density =       40.000001383772

     Total iterative time =     11.7s



                  Occupations of the irreducible representations
                  ----------------------------------------------

                     irrep           alpha         beta
                     --------     --------     --------
                     a'               16.0         16.0
                     a"                4.0          4.0


 center of mass
 --------------
 x =  -0.01194479 y =  -0.18558523 z =   0.00000000

 moments of inertia (a.u.)
 ------------------
         388.458997792068          -8.898160997646           0.000000000000
          -8.898160997646         197.011022506629           0.000000000000
           0.000000000000           0.000000000000         574.259237913158
 Line search: 
     step= 1.00 grad=-9.1D-04 hess= 2.9D-04 energy=   -579.740685 mode=downhill
 new step= 1.55                   predicted energy=   -579.740774
  no constraints, skipping    0.0000000000000000     
  no constraints, skipping    0.0000000000000000     
  no constraints, skipping    0.0000000000000000     
  no constraints, skipping    0.0000000000000000     
  no constraints, skipping    0.0000000000000000     
  no constraints, skipping    0.0000000000000000     
  no constraints, skipping    0.0000000000000000     
  no constraints, skipping    0.0000000000000000     

          --------
          Step   2
          --------


                         Geometry "geometry" -> "geometry"
                         ---------------------------------

 Output coordinates in angstroms (scale by  1.889725989 to convert to a.u.)

  No.       Tag          Charge          X              Y              Z
 ---- ---------------- ---------- -------------- -------------- --------------
    1 C                    6.0000    -1.14126175     1.28347617     0.00000000
    2 C                    6.0000     0.13629004     0.48665195     0.00000000
    3 C                    6.0000     1.37484441     0.94629444     0.00000000
    4 Cl                  17.0000    -0.12458461    -1.34490122     0.00000000
    5 H                    1.0000    -1.19566029     1.92174278    -0.88470156
    6 H                    1.0000    -1.19566029     1.92174278     0.88470156
    7 H                    1.0000    -2.01293914     0.63660604     0.00000000
    8 H                    1.0000     2.23985820     0.30239684     0.00000000
    9 H                    1.0000     1.54697510     2.01622441     0.00000000

      Atomic Mass 
      ----------- 

      C                 12.000000
      Cl                34.968850
      H                  1.007825


 Effective nuclear repulsion energy (a.u.)     145.8233050829

            Nuclear Dipole moment (a.u.) 
            ----------------------------
        X                 Y               Z
 ---------------- ---------------- ----------------
    -0.9753415583     0.4420589974     0.0000000000

      Symmetry information
      --------------------

 Group name             Cs        
 Group number              2
 Group order               2
 No. of unique centers     8

      Symmetry unique atoms

     1    2    3    4    5    7    8    9


                                 NWChem DFT Module
                                 -----------------


                               Molecule conformer 0




 Summary of "ao basis" -> "ao basis" (spherical)
 ------------------------------------------------------------------------------
       Tag                 Description            Shells   Functions and Types
 ---------------- ------------------------------  ------  ---------------------
 C                           6-311G                  7       13   4s3p
 Cl                          6-311G                 11       21   6s5p
 H                           6-311G                  3        3   3s


      Symmetry analysis of basis
      --------------------------

        a'         58
        a"         17

  Caching 1-el integrals 

            General Information
            -------------------
          SCF calculation type: DFT
          Wavefunction type:  closed shell.
          No. of atoms     :     9
          No. of electrons :    40
           Alpha electrons :    20
            Beta electrons :    20
          Charge           :     0
          Spin multiplicity:     1
          Use of symmetry is: on ; symmetry adaption is: on 
          Maximum number of iterations: ***
          This is a Direct SCF calculation.
          AO basis - number of functions:    75
                     number of shells:    47
          Convergence on energy requested:  1.00D-06
          Convergence on density requested:  1.00D-05
          Convergence on gradient requested:  5.00D-04

              XC Information
              --------------
                         B3LYP Method XC Potential
                     Hartree-Fock (Exact) Exchange  0.200          
                        Slater Exchange Functional  0.800 local    
                    Becke 1988 Exchange Functional  0.720 non-local
              Lee-Yang-Parr Correlation Functional  0.810          
                  VWN I RPA Correlation Functional  0.190 local    

             Grid Information
             ----------------
          Grid used for XC integration:  fine      
          Radial quadrature: Mura-Knowles        
          Angular quadrature: Lebedev. 
          Tag              B.-S. Rad. Rad. Pts. Rad. Cut. Ang. Pts.
          ---              ---------- --------- --------- ---------
          C                   0.70       70          11.0       590
          Cl                  1.00      123          11.0       770
          H                   0.35       60          12.0       590
          Grid pruning is: on 
          Number of quadrature shells:   573
          Spatial weights used:  Erf1

          Convergence Information
          -----------------------
          Convergence aids based upon iterative change in 
          total energy or number of iterations. 
          Levelshifting, if invoked, occurs when the 
          HOMO/LUMO gap drops below (HL_TOL):  1.00D-02
          DIIS, if invoked, will attempt to extrapolate 
          using up to (NFOCK): 10 stored Fock matrices.

                    Damping( 0%)  Levelshifting(0.5)       DIIS
                  --------------- ------------------- ---------------
          dE  on:    start            ASAP                start   
          dE off:    2 iters        *** iters           *** iters 


      Screening Tolerance Information
      -------------------------------
          Density screening/tol_rho:  1.00D-10
          AO Gaussian exp screening on grid/accAOfunc:  14
          CD Gaussian exp screening on grid/accCDfunc:  20
          XC Gaussian exp screening on grid/accXCfunc:  20
          Schwarz screening/accCoul:  1.00D-08

          Performing ZORA calculations
          ----------------------------


      Superposition of Atomic Density Guess
      -------------------------------------

 Sum of atomic energies:        -574.98156165

 Read atomic ZORA corrections from ./CC(=C)Cl_mol_6_conformer_0.zora_sf

 Forcing recalculation of ZORA corrections
       Generating atomic ZORA corrections
       ----------------------------------

 In dft_scf:: zora:Knucl= F

 Grid_pts file          = ./CC(=C)Cl_mol_6_conformer_0.gridpts.00
 Record size in doubles =  12289        No. of grid_pts per rec  =   3070
 Max. records in memory =      5        Max. recs in file   =     13486


 Wrote atomic ZORA corrections to ./CC(=C)Cl_mol_6_conformer_0.zora_sf


 Loading old vectors from job with title :

Molecule conformer 0


      Symmetry analysis of molecular orbitals - initial
      -------------------------------------------------

  Numbering of irreducible representations: 

     1 a'          2 a"      

  Orbital symmetries:

     1 a'          2 a'          3 a'          4 a'          5 a'      
     6 a'          7 a"          8 a'          9 a'         10 a'      
    11 a'         12 a'         13 a'         14 a'         15 a"      
    16 a'         17 a'         18 a"         19 a'         20 a"      
    21 a"         22 a'         23 a'         24 a'         25 a'      
    26 a"         27 a'         28 a'         29 a'         30 a"      

   Time after variat. SCF:     97.6
   Time prior to 1st pass:     97.6

           Memory utilization after 1st SCF pass: 
           Heap Space remaining (MW):      131.01           131006386
          Stack Space remaining (MW):      131.06           131060060

   convergence    iter        energy       DeltaE   RMS-Dens  Diis-err    time
 ---------------- ----- ----------------- --------- --------- ---------  ------
 d= 0,ls=0.0,diis     1   -579.7407217633 -7.26D+02  3.36D-04  3.23D-04    99.7
 d= 0,ls=0.0,diis     2   -579.7407825013 -6.07D-05  9.89D-05  1.71D-05   102.3
 d= 0,ls=0.0,diis     3   -579.7407799590  2.54D-06  5.49D-05  3.79D-05   104.7
 d= 0,ls=0.0,diis     4   -579.7407847371 -4.78D-06  1.12D-05  1.01D-06   107.5
 d= 0,ls=0.0,diis     5   -579.7407848588 -1.22D-07  2.42D-06  1.10D-07   109.9
(nogshift,skip_gshiftAOev,done_Fji)=( 1,F,F)


         Total DFT energy =     -579.740784858776
      One electron energy =    -1083.955088786434
           Coulomb energy =      404.872088285992
    Exchange-Corr. energy =      -46.481089441193
 Nuclear repulsion energy =      145.823305082858

       Scaling correction =        0.810084804148

 Numeric. integr. density =       40.000001285062

     Total iterative time =     12.5s



                  Occupations of the irreducible representations
                  ----------------------------------------------

                     irrep           alpha         beta
                     --------     --------     --------
                     a'               16.0         16.0
                     a"                4.0          4.0


 center of mass
 --------------
 x =  -0.01343469 y =  -0.18847207 z =   0.00000000

 moments of inertia (a.u.)
 ------------------
         390.919927956869          -9.067051122997           0.000000000000
          -9.067051122997         196.711583965867           0.000000000000
           0.000000000000           0.000000000000         576.363783338668

            General Information
            -------------------
          SCF calculation type: DFT
          Wavefunction type:  closed shell.
          No. of atoms     :     9
          No. of electrons :    40
           Alpha electrons :    20
            Beta electrons :    20
          Charge           :     0
          Spin multiplicity:     1
          Use of symmetry is: on ; symmetry adaption is: on 
          Maximum number of iterations: ***
          This is a Direct SCF calculation.
          AO basis - number of functions:    75
                     number of shells:    47
          Convergence on energy requested:  1.00D-06
          Convergence on density requested:  1.00D-05
          Convergence on gradient requested:  5.00D-04

              XC Information
              --------------
                         B3LYP Method XC Potential
                     Hartree-Fock (Exact) Exchange  0.200          
                        Slater Exchange Functional  0.800 local    
                    Becke 1988 Exchange Functional  0.720 non-local
              Lee-Yang-Parr Correlation Functional  0.810          
                  VWN I RPA Correlation Functional  0.190 local    

             Grid Information
             ----------------
          Grid used for XC integration:  fine      
          Radial quadrature: Mura-Knowles        
          Angular quadrature: Lebedev. 
          Tag              B.-S. Rad. Rad. Pts. Rad. Cut. Ang. Pts.
          ---              ---------- --------- --------- ---------
          C                   0.70       70          11.0       590
          Cl                  1.00      123          11.0       770
          H                   0.35       60          12.0       590
          Grid pruning is: on 
          Number of quadrature shells:   573
          Spatial weights used:  Erf1

          Convergence Information
          -----------------------
          Convergence aids based upon iterative change in 
          total energy or number of iterations. 
          Levelshifting, if invoked, occurs when the 
          HOMO/LUMO gap drops below (HL_TOL):  1.00D-02
          DIIS, if invoked, will attempt to extrapolate 
          using up to (NFOCK): 10 stored Fock matrices.

                    Damping( 0%)  Levelshifting(0.5)       DIIS
                  --------------- ------------------- ---------------
          dE  on:    start            ASAP                start   
          dE off:    2 iters        *** iters           *** iters 


      Screening Tolerance Information
      -------------------------------
          Density screening/tol_rho:  1.00D-10
          AO Gaussian exp screening on grid/accAOfunc:  14
          CD Gaussian exp screening on grid/accCDfunc:  20
          XC Gaussian exp screening on grid/accXCfunc:  20
          Schwarz screening/accCoul:  1.00D-08



                            NWChem DFT Gradient Module
                            --------------------------


                               Molecule conformer 0



  charge          =   0.00
  wavefunction    = closed shell

  Using symmetry


                         DFT ENERGY GRADIENTS

    atom               coordinates                        gradient
                 x          y          z           x          y          z
   1 C      -2.156672   2.425418   0.000000   -0.000927   0.000357   0.000000
   2 C       0.257551   0.919639   0.000000    0.005514  -0.001800   0.000000
   3 C       2.598079   1.788237   0.000000   -0.004367  -0.001188   0.000000
   4 Cl     -0.235431  -2.541495   0.000000   -0.000343   0.001917   0.000000
   5 H      -2.259470   3.631567  -1.671844   -0.000011   0.000186  -0.000379
   6 H      -2.259470   3.631567   1.671844   -0.000011   0.000186   0.000379
   7 H      -3.803903   1.203011   0.000000    0.000552  -0.000040   0.000000
   8 H       4.232718   0.571447   0.000000   -0.000280   0.000137   0.000000
   9 H       2.923359   3.810112   0.000000   -0.000126   0.000245   0.000000

                 ----------------------------------------
                 |  Time  |  1-e(secs)   |  2-e(secs)   |
                 ----------------------------------------
                 |  CPU   |       0.00   |       0.10   |
                 ----------------------------------------
                 |  WALL  |       0.00   |       0.10   |
                 ----------------------------------------
  no constraints, skipping    0.0000000000000000     

  Step       Energy      Delta E   Gmax     Grms     Xrms     Xmax   Walltime
  ---- ---------------- -------- -------- -------- -------- -------- --------
@    2    -579.74078486 -7.1D-04  0.00476  0.00097  0.01518  0.03937    112.1
[...]
dia1(k,t,iat1,ispin)=(  2,  3,  8,  1)=(    -0.00125880,    -0.00125880) ppm
dia1(k,t,iat1,ispin)=(  3,  1,  8,  1)=(     0.00139801,     0.00139801) ppm
dia1(k,t,iat1,ispin)=(  3,  2,  8,  1)=(     0.00024803,     0.00024803) ppm
dia1(k,t,iat1,ispin)=(  3,  3,  8,  1)=(    15.12766988,    15.12766988) ppm
(dia2,par1)(k,t,iat1,spin)=(  1,  1,  8,  1)=(     1.52246806,     1.52246806,    -0.17274393,    -0.17274393) ppm
(dia2,par1)(k,t,iat1,spin)=(  2,  1,  8,  1)=(     3.23916031,     3.23916031,    -0.10800591,    -0.10800591) ppm
(dia2,par1)(k,t,iat1,spin)=(  3,  1,  8,  1)=(     0.00026408,     0.00026408,    -0.00123674,    -0.00123674) ppm
(dia2,par1)(k,t,iat1,spin)=(  1,  2,  8,  1)=(     3.30896835,     3.30896835,    -0.61496116,    -0.61496116) ppm
(dia2,par1)(k,t,iat1,spin)=(  2,  2,  8,  1)=(     3.95764713,     3.95764713,    -0.44220620,    -0.44220620) ppm
(dia2,par1)(k,t,iat1,spin)=(  3,  2,  8,  1)=(     0.00000595,     0.00000595,     0.00166492,     0.00166492) ppm
(dia2,par1)(k,t,iat1,spin)=(  1,  3,  8,  1)=(    -0.00293041,    -0.00293041,    -0.00004959,    -0.00004959) ppm
(dia2,par1)(k,t,iat1,spin)=(  2,  3,  8,  1)=(     0.00035245,     0.00035245,    -0.00005925,    -0.00005925) ppm
(dia2,par1)(k,t,iat1,spin)=(  3,  3,  8,  1)=(     6.02630898,     6.02630898,    -0.73629162,    -0.73629162) ppm
dia1(k,t,iat1,ispin)=(  1,  1,  9,  1)=(    22.44621389,    22.44621389) ppm
dia1(k,t,iat1,ispin)=(  1,  2,  9,  1)=(     6.34789945,     6.34789945) ppm
dia1(k,t,iat1,ispin)=(  1,  3,  9,  1)=(    -0.00061652,    -0.00061652) ppm
dia1(k,t,iat1,ispin)=(  2,  1,  9,  1)=(     6.43982326,     6.43982326) ppm
dia1(k,t,iat1,ispin)=(  2,  2,  9,  1)=(    39.77988796,    39.77988796) ppm
dia1(k,t,iat1,ispin)=(  2,  3,  9,  1)=(    -0.00075383,    -0.00075383) ppm
dia1(k,t,iat1,ispin)=(  3,  1,  9,  1)=(     0.00114491,     0.00114491) ppm
dia1(k,t,iat1,ispin)=(  3,  2,  9,  1)=(     0.00042696,     0.00042696) ppm
dia1(k,t,iat1,ispin)=(  3,  3,  9,  1)=(    16.14766171,    16.14766171) ppm
(dia2,par1)(k,t,iat1,spin)=(  1,  1,  9,  1)=(     5.80653135,     5.80653135,     0.37753705,     0.37753705) ppm
(dia2,par1)(k,t,iat1,spin)=(  2,  1,  9,  1)=(    -0.81481349,    -0.81481349,     0.42633785,     0.42633785) ppm
(dia2,par1)(k,t,iat1,spin)=(  3,  1,  9,  1)=(    -0.00052391,    -0.00052391,    -0.00032636,    -0.00032636) ppm
(dia2,par1)(k,t,iat1,spin)=(  1,  2,  9,  1)=(    -1.37502086,    -1.37502086,    -1.31199043,    -1.31199043) ppm
(dia2,par1)(k,t,iat1,spin)=(  2,  2,  9,  1)=(     0.11561849,     0.11561849,    -0.93792925,    -0.93792925) ppm
(dia2,par1)(k,t,iat1,spin)=(  3,  2,  9,  1)=(     0.00210130,     0.00210130,     0.00103200,     0.00103200) ppm
(dia2,par1)(k,t,iat1,spin)=(  1,  3,  9,  1)=(     0.00000303,     0.00000303,     0.00004699,     0.00004699) ppm
(dia2,par1)(k,t,iat1,spin)=(  2,  3,  9,  1)=(    -0.00080996,    -0.00080996,    -0.00014109,    -0.00014109) ppm
(dia2,par1)(k,t,iat1,spin)=(  3,  3,  9,  1)=(     5.80435313,     5.80435313,     1.19916539,     1.19916539) ppm

 Wrote ZORA NMR data to ./CC(=C)Cl_mol_6_conformer_0.zora_nmrcs

(nogshift,skip_gshiftAOev,done_Fji)=( 1,F,T)


         Total DFT energy =     -579.746116657250
      One electron energy =    -1083.869145684549
           Coulomb energy =      404.775487316614
    Exchange-Corr. energy =      -46.478632875370
 Nuclear repulsion energy =      145.575769846130

             COSMO energy =        0.250404739924

       Scaling correction =        0.810205792864

 Numeric. integr. density =       40.000001334801

     Total iterative time =     59.8s


                                   COSMO solvation results
                                   -----------------------

                 gas phase energy =      -579.740921233412
                 sol phase energy =      -579.746116657250
 (electrostatic) solvation energy =         0.005195423837 (    3.26 kcal/mol)

 center of mass
 --------------
 x =  -0.00892181 y =  -0.18910533 z =   0.00000000

 moments of inertia (a.u.)
 ------------------
         392.291409819981          -8.081035094306           0.000000000000
          -8.081035094306         197.406942349430           0.000000000000
           0.000000000000           0.000000000000         578.455273002695

            Scalar ZORA NMR Shielding
            -------------------------


          -----------------------------------------
          Chemical Shielding Tensors (GIAO, in ppm)
          -----------------------------------------


 Read ZORA NMR data from ./CC(=C)Cl_mol_6_conformer_0.zora_nmrcs

    0 giaofock schwarz done =      81.65%
    0 giaofock schwarz done =      81.89%
                                NWChem CPHF Module
                                ------------------



 solvent parameters
 solvname_short: cdcl3   
 solvname_long:  unknown                            
 dielec:       78.4000
 dielecinf:     1.7769

          ---------------
          -cosmo- solvent
          ---------------
 Cosmo: York-Karplus, doi: 10.1021/jp992097l
 dielectric constant -eps-     =  78.40
 screen = (eps-1)/(eps    )    =   0.98724
 surface charge correction     = lagrangian
 -lineq- algorithm             =   0
 -bem- low  level              =   2
 -bem- from -octahedral-
 gaussian surface charge width =   0.98000
 degree of switching           =   1.00000
 switching function tolerance  =   0.00010
 atomic radii = 
 --------------
    1  6.000  2.000
    2  6.000  2.000
    3  6.000  2.000
    4 17.000  2.050
    5  1.000  1.300
    6  1.000  1.300
    7  1.000  1.300
    8  1.000  1.300
    9  1.000  1.300

 solvent accessible surface
 --------------------------

 ---------- ATOMIC COORDINATES (A.U.) ------------ VDWR(ANG.) --
     1   -2.16244707    2.42588360    0.00000000     2.000
     2    0.25237794    0.93113293    0.00000000     2.000
     3    2.60423455    1.79003606    0.00000000     2.000
     4   -0.22377930   -2.54736522    0.00000000     2.050
     5   -2.26829856    3.63251988   -1.67001386     1.300
     6   -2.26829856    3.63251988    1.67001386     1.300
     7   -3.81085185    1.20314224    0.00000000     1.300
     8    4.23133595    0.56231948    0.00000000     1.300
     9    2.94248743    3.80931507    0.00000000     1.300
 number of segments per atom =         32
 number of   points per atom =         32
 atom (   nspa,  nppa )
 ----------------------
    1 (     18,     0 )       0
    2 (     10,     0 )       0
    3 (     20,     0 )       0
    4 (     26,     0 )       0
    5 (     15,     0 )       0
    6 (     15,     0 )       0
    7 (     12,     0 )       0
    8 (     14,     0 )       0
    9 (     14,     0 )       0
 number of -cosmo- surface points =      144
 molecular surface =    115.066 angstrom**2
 molecular volume  =     70.269 angstrom**3
 G(cav/disp)       =      1.435 kcal/mol
 ...... end of -cosmo- initialization ......


  scftype          =     RHF 
  nclosed          =       20
  nopen            =        0
  variables        =     1100
  # of vectors     =        3
  tolerance        = 0.10D-03
  level shift      = 0.00D+00
  max iterations   =       50
  max subspace     =       30

 SCF residual:    1.6680750591603556E-005


Iterative solution of linear equations
  No. of variables     1100
  No. of equations        3
  Maximum subspace       30
        Iterations       50
       Convergence  1.0D-04
        Start time   1023.8


   iter   nsub   residual    time
   ----  ------  --------  ---------
     1      3    4.90D-01    1026.4
     2      6    2.40D-02    1029.1
     3      9    1.79D-03    1031.9
     4     12    5.59D-05    1034.6

 Wrote CPHF data to ./CC(=C)Cl_mol_6_conformer_0.shieldcphf

 Calc. par tensor-> zora
      Atom:    1  H 
        Diamagnetic
     26.4474     -3.5955      2.1563
     -3.5955     30.7556     -7.7167
      2.1563     -7.7167     31.0515

        Paramagnetic
      3.1564      1.2148     -0.9881
      1.2148      0.2204      3.6850
     -0.9881      3.6850     -1.1957

        Total Shielding Tensor
     29.6038     -2.3807      1.1682
     -2.3807     30.9761     -4.0316
      1.1682     -4.0316     29.8558

           isotropic =      30.1452
          anisotropy =       8.1705

          Principal Components and Axis System
                 1           2           3
               35.5922     28.6739     26.1696

      1        -0.3961      0.8838      0.2491
      2         0.7114      0.1238      0.6918
      3        -0.5806     -0.4512      0.6777



      Atom:    2  H 
        Diamagnetic
     26.4473     -3.5950     -2.1548
     -3.5950     30.7550      7.7150
     -2.1548      7.7150     31.0513

        Paramagnetic
      3.1536      1.2154      0.9866
      1.2154      0.2188     -3.6825
      0.9866     -3.6825     -1.1953

        Total Shielding Tensor
     29.6009     -2.3796     -1.1682
     -2.3796     30.9738      4.0326
     -1.1682      4.0326     29.8559

           isotropic =      30.1436
          anisotropy =       8.1709

          Principal Components and Axis System
                 1           2           3
               35.5908     28.6720     26.1679

      1        -0.3959      0.8839     -0.2490
      2         0.7113      0.1236     -0.6919
      3         0.5808      0.4510      0.6777



      Atom:    3  H 
        Diamagnetic
     36.8414      2.5886      0.0017
      2.5886     29.2515     -0.0012
      0.0017     -0.0012     21.7188

        Paramagnetic
     -1.3056     -2.1248     -0.0020
     -2.1248      2.1647      0.0020
     -0.0020      0.0020      4.6928

        Total Shielding Tensor
     35.5358      0.4638     -0.0003
      0.4638     31.4162      0.0008
     -0.0003      0.0008     26.4116

           isotropic =      31.1212
          anisotropy =       6.6992

          Principal Components and Axis System
                 1           2           3
               35.5873     31.3646     26.4116

      1         0.9939     -0.1105      0.0000
      2         0.1105      0.9939     -0.0002
      3        -0.0000      0.0002      1.0000



      Atom:    4  H 
        Diamagnetic
     38.6115     -4.7201     -0.0012
     -4.7201     28.9306     -0.0003
     -0.0012     -0.0003     21.1540

        Paramagnetic
     -7.4545      6.9264      0.0014
      6.9264     -4.2859      0.0001
      0.0014      0.0001      4.6487

        Total Shielding Tensor
     31.1570      2.2062      0.0001
      2.2062     24.6447     -0.0002
      0.0001     -0.0002     25.8026

           isotropic =      27.2014
          anisotropy =       6.9489

          Principal Components and Axis System
                 1           2           3
               31.8340     25.8026     23.9677

      1         0.9560      0.0000     -0.2934
      2         0.2934     -0.0001      0.9560
      3         0.0000      1.0000      0.0001



      Atom:    5  H 
        Diamagnetic
     28.2527      5.2989      0.0000
      5.2989     39.8955      0.0005
      0.0000      0.0005     21.9520

        Paramagnetic
      1.3614     -2.6969     -0.0002
     -2.6969    -14.2968     -0.0011
     -0.0002     -0.0011      3.8975

        Total Shielding Tensor
     29.6141      2.6021     -0.0002
      2.6021     25.5987     -0.0006
     -0.0002     -0.0006     25.8495

           isotropic =      27.0208
          anisotropy =       5.8084

          Principal Components and Axis System
                 1           2           3
               30.8930     25.8495     24.3198

      1         0.8975      0.0002     -0.4411
      2         0.4411     -0.0003      0.8975
      3        -0.0001      1.0000      0.0003




 Task  times  cpu:       98.8s     wall:       85.3s


                                NWChem Input Module
                                -------------------


 Summary of allocated global arrays
-----------------------------------
  array 0 => double precision sf 1(75,75),  handle: -987 
  array 1 => double precision sf 1(75,75),  handle: -986 
  array 2 => double precision sf 1(75,75),  handle: -985 
  array 3 => double precision sf 1(75,75),  handle: -984 
  array 4 => double precision sf 1(75,75),  handle: -983 
  array 5 => double precision sf 1(75,75),  handle: -982 
  array 6 => double precision sf 1(75,75),  handle: -981 
  array 7 => double precision sf 1(75,75),  handle: -980 
  array 8 => double precision sf 1(75,75),  handle: -979 
  array 9 => double precision sf 1(75,75),  handle: -978 
  array 10 => double precision sf 1(75,75),  handle: -977 
  array 11 => double precision sf 1(75,75),  handle: -976 
  array 12 => double precision sf 1(75,75),  handle: -975 
  array 13 => double precision sf 1(75,75),  handle: -974 
  array 14 => double precision sf 1(75,75),  handle: -973 
  array 15 => double precision sf 1(75,75),  handle: -972 
  array 16 => double precision sf 1(75,75),  handle: -971 
  array 17 => double precision sf 1(75,75),  handle: -970 
  array 18 => double precision sf 1(75,75),  handle: -969 
  array 19 => double precision sf 1(75,75),  handle: -968 
  array 20 => double precision sf 1(75,75),  handle: -967 
  array 21 => double precision sf 1(75,75),  handle: -966 
  array 22 => double precision sf 1(75,75),  handle: -965 
  array 23 => double precision sf 1(75,75),  handle: -964 
  array 24 => double precision sf 1(75,75),  handle: -963 
  array 25 => double precision sf 1(75,75),  handle: -962 
  array 26 => double precision sf 1(75,75),  handle: -961 
  array 27 => double precision sf 1(75,75),  handle: -960 
  array 28 => double precision sf 1(75,75),  handle: -959 
  array 29 => double precision sf 1(75,75),  handle: -958 
  array 30 => double precision sf 1(75,75),  handle: -957 
  array 31 => double precision sf 1(75,75),  handle: -956 
  array 32 => double precision sf 1(75,75),  handle: -955 
  array 33 => double precision sf 1(75,75),  handle: -954 
  array 34 => double precision sf 1(75,75),  handle: -953 
  array 35 => double precision sf 1(75,75),  handle: -952 
  array 36 => double precision sf 1(75,75),  handle: -951 
  array 37 => double precision sf 1(75,75),  handle: -950 
  array 38 => double precision sf 1(75,75),  handle: -949 
  array 39 => double precision sf 1(75,75),  handle: -948 
  array 40 => double precision sf 1(75,75),  handle: -947 
  array 41 => double precision sf 1(75,75),  handle: -946 
  array 42 => double precision sf 1(75,75),  handle: -945 
  array 43 => double precision sf 1(75,75),  handle: -944 
  array 44 => double precision sf 1(75,75),  handle: -943 
  array 45 => double precision sf 1(75,75),  handle: -942 
  array 46 => double precision sf 1(75,75),  handle: -941 
  array 47 => double precision sf 1(75,75),  handle: -940 
  array 48 => double precision sf 1(75,75),  handle: -939 
  array 49 => double precision sf 1(75,75),  handle: -938 
  array 50 => double precision sf 1(75,75),  handle: -937 
  array 51 => double precision sf 1(75,75),  handle: -936 
  array 52 => double precision sf 1(75,75),  handle: -935 
  array 53 => double precision sf 1(75,75),  handle: -934 
  array 54 => double precision sf 1(75,75),  handle: -933 
  array 55 => double precision sf 1(75,75),  handle: -932 
  array 56 => double precision sf 1(75,75),  handle: -931 



                         GA Statistics for process    0
                         ------------------------------

       create   destroy   get      put      acc     scatter   gather  read&inc
calls: 8660     8298     3.00e+05 5.34e+04 7.58e+04   60        0     1.04e+04 
number of processes/call 0.00e+00 0.00e+00 0.00e+00 0.00e+00 0.00e+00
bytes total:             4.04e+08 5.82e+07 3.38e+08 4.48e+02 0.00e+00 8.32e+04
bytes remote:            3.58e+08 4.99e+07 3.09e+08 -2.24e+02 0.00e+00 0.00e+00
Max memory consumed for GA by this process: 660432 bytes

MA_summarize_allocated_blocks: starting scan ...
MA_summarize_allocated_blocks: scan completed: 0 heap blocks, 0 stack blocks
MA usage statistics:

	allocation statistics:
					      heap	     stack
					      ----	     -----
	current number of blocks	         0	         0
	maximum number of blocks	        66	        59
	current total bytes		         0	         0
	maximum total bytes		   2300808	  24872344
	maximum total K-bytes		      2301	     24873
	maximum total M-bytes		         3	        25


                                     CITATION
                                     --------
                Please cite the following reference when publishing
                           results obtained with NWChem:

          E. Apr, E. J. Bylaska, W. A. de Jong, N. Govind, K. Kowalski,
       T. P. Straatsma, M. Valiev, H. J. J. van Dam, Y. Alexeev, J. Anchell,
       V. Anisimov, F. W. Aquino, R. Atta-Fynn, J. Autschbach, N. P. Bauman,
     J. C. Becca, D. E. Bernholdt, K. Bhaskaran-Nair, S. Bogatko, P. Borowski,
        J. Boschen, J. Brabec, A. Bruner, E. Caut, Y. Chen, G. N. Chuev,
      C. J. Cramer, J. Daily, M. J. O. Deegan, T. H. Dunning Jr., M. Dupuis,
   K. G. Dyall, G. I. Fann, S. A. Fischer, A. Fonari, H. Frchtl, L. Gagliardi,
      J. Garza, N. Gawande, S. Ghosh, K. Glaesemann, A. W. Gtz, J. Hammond,
       V. Helms, E. D. Hermes, K. Hirao, S. Hirata, M. Jacquelin, L. Jensen,
   B. G. Johnson, H. Jnsson, R. A. Kendall, M. Klemm, R. Kobayashi, V. Konkov,
      S. Krishnamoorthy, M. Krishnan, Z. Lin, R. D. Lins, R. J. Littlefield,
      A. J. Logsdail, K. Lopata, W. Ma, A. V. Marenich, J. Martin del Campo,
   D. Mejia-Rodriguez, J. E. Moore, J. M. Mullin, T. Nakajima, D. R. Nascimento,
    J. A. Nichols, P. J. Nichols, J. Nieplocha, A. Otero-de-la-Roza, B. Palmer,
    A. Panyala, T. Pirojsirikul, B. Peng, R. Peverati, J. Pittner, L. Pollack,
   R. M. Richard, P. Sadayappan, G. C. Schatz, W. A. Shelton, D. W. Silverstein,
   D. M. A. Smith, T. A. Soares, D. Song, M. Swart, H. L. Taylor, G. S. Thomas,
            V. Tipparaju, D. G. Truhlar, K. Tsemekhman, T. Van Voorhis,
     . Vzquez-Mayagoitia, P. Verma, O. Villa, A. Vishnu, K. D. Vogiatzis,
        D. Wang, J. H. Weare, M. J. Williamson, T. L. Windus, K. Woliski,
        A. T. Wong, Q. Wu, C. Yang, Q. Yu, M. Zacharias, Z. Zhang, Y. Zhao,
                                and R. J. Harrison
                        "NWChem: Past, present, and future
                         J. Chem. Phys. 152, 184102 (2020)
                               doi:10.1063/5.0004997

                                      AUTHORS
                                      -------
     E. Apra, E. J. Bylaska, N. Govind, K. Kowalski, M. Valiev, W. A. de Jong,
      T. P. Straatsma, H. J. J. van Dam, D. Wang, T. L. Windus, N. P. Bauman,
       A. Panyala, J. Hammond, J. Autschbach, K. Bhaskaran-Nair, J. Brabec,
    K. Lopata, S. A. Fischer, S. Krishnamoorthy, M. Jacquelin, W. Ma, M. Klemm,
       O. Villa, Y. Chen, V. Anisimov, F. Aquino, S. Hirata, M. T. Hackler,
           Eric Hermes, L. Jensen, J. E. Moore, J. C. Becca, V. Konjkov,
            D. Mejia-Rodriguez, T. Risthaus, M. Malagoli, A. Marenich,
   A. Otero-de-la-Roza, J. Mullin, P. Nichols, R. Peverati, J. Pittner, Y. Zhao,
        P.-D. Fan, A. Fonari, M. J. Williamson, R. J. Harrison, J. R. Rehr,
      M. Dupuis, D. Silverstein, D. M. A. Smith, J. Nieplocha, V. Tipparaju,
      M. Krishnan, B. E. Van Kuiken, A. Vazquez-Mayagoitia, M. Swart, Q. Wu,
   T. Van Voorhis, A. A. Auer, M. Nooijen, L. D. Crosby, E. Brown, G. Cisneros,
     G. I. Fann, H. Fruchtl, J. Garza, K. Hirao, R. A. Kendall, J. A. Nichols,
       K. Tsemekhman, K. Wolinski, J. Anchell, D. E. Bernholdt, P. Borowski,
       T. Clark, D. Clerc, H. Dachsel, M. J. O. Deegan, K. Dyall, D. Elwood,
      E. Glendening, M. Gutowski, A. C. Hess, J. Jaffe, B. G. Johnson, J. Ju,
        R. Kobayashi, R. Kutteh, Z. Lin, R. Littlefield, X. Long, B. Meng,
      T. Nakajima, S. Niu, L. Pollack, M. Rosing, K. Glaesemann, G. Sandrone,
      M. Stave, H. Taylor, G. Thomas, J. H. van Lenthe, A. T. Wong, Z. Zhang.

 Total times  cpu:     1077.7s     wall:     1034.8s
