 argument  1 = CC(=C)Cl_mol_9_conformer_0.nw



============================== echo of input deck ==============================
start

title "Molecule conformer 0"

memory total 4000 mb

echo
geometry units angstroms
   C     -1.0541    -0.4275    -0.1018
   C      0.1483     0.4700    -0.1197
   C      1.3487     0.0416     0.2852
   Cl    -0.0401     2.1300    -0.6670
   H     -0.7969    -1.4590     0.2216
   H     -1.8108    -0.0137     0.5967
   H     -1.4922    -0.4754    -1.1204
   H      2.2038     0.7099     0.2701
   H      1.4934    -0.9759     0.6353
end


basis spherical
* library 6-311G
end

driver
  maxiter 500
  xyz final
end

relativistic
  zora on
  zora:cutoff_NMR 1d-8
  zora:cutoff 1d-30
end

dft
  direct
  grid fine
  xc B3LYP
  mult 1
  maxiter 1500
  noprint "final vectors analysis" multipole
end

task dft optimize

task dft freq

property
  shielding 5 5 6 7 8 9
end

cosmo
   solvent cdcl3
end

task dft property
================================================================================


                                         
                                         


             Northwest Computational Chemistry Package (NWChem) 7.0.2
             --------------------------------------------------------


                    Environmental Molecular Sciences Laboratory
                       Pacific Northwest National Laboratory
                                Richland, WA 99352

                              Copyright (c) 1994-2020
                       Pacific Northwest National Laboratory
                            Battelle Memorial Institute

             NWChem is an open-source computational chemistry package
                        distributed under the terms of the
                      Educational Community License (ECL) 2.0
             A copy of the license is included with this distribution
                              in the LICENSE.TXT file

                                  ACKNOWLEDGMENT
                                  --------------

            This software and its documentation were developed at the
            EMSL at Pacific Northwest National Laboratory, a multiprogram
            national laboratory, operated for the U.S. Department of Energy
            by Battelle under Contract Number DE-AC05-76RL01830. Support
            for this work was provided by the Department of Energy Office
            of Biological and Environmental Research, Office of Basic
            Energy Sciences, and the Office of Advanced Scientific Computing.


           Job information
           ---------------

    hostname        = ponder
    program         = nwchem
    date            = Tue Aug  6 13:40:17 2024

    compiled        = Sat_Apr_09_17:12:10_2022
    source          = /build/nwchem-f1f4gx/nwchem-7.0.2/build-openmpi
    nwchem branch   = 7.0.2
    nwchem revision = N/A
    ga revision     = 5.8.1
    use scalapack   = T
    input           = CC(=C)Cl_mol_9_conformer_0.nw
    prefix          = CC(=C)Cl_mol_9_conformer_0.
    data base       = ./CC(=C)Cl_mol_9_conformer_0.db
    status          = startup
    nproc           =       40
    time left       =     -1s



           Memory information
           ------------------

    heap     =  131071994 doubles =   1000.0 Mbytes
    stack    =  131071999 doubles =   1000.0 Mbytes
    global   =  262144000 doubles =   2000.0 Mbytes (distinct from heap & stack)
    total    =  524287993 doubles =   4000.0 Mbytes
    verify   = yes
    hardfail = no 


           Directory information
           ---------------------

  0 permanent = .
  0 scratch   = .




                                NWChem Input Module
                                -------------------


                               Molecule conformer 0
                               --------------------

 Scaling coordinates for geometry "geometry" by  1.889725989
 (inverse scale =  0.529177249)

 C1  symmetry detected

          ------
          auto-z
          ------
  no constraints, skipping    0.0000000000000000     
  no constraints, skipping    0.0000000000000000     


                             Geometry "geometry" -> ""
                             -------------------------

 Output coordinates in angstroms (scale by  1.889725989 to convert to a.u.)

  No.       Tag          Charge          X              Y              Z
 ---- ---------------- ---------- -------------- -------------- --------------
    1 C                    6.0000    -1.12633721    -1.27111544     0.00112726
    2 C                    6.0000     0.10726533    -0.41684896    -0.00565254
    3 C                    6.0000     1.33187698    -0.95416972     0.00093779
    4 Cl                  17.0000    -0.07175990     1.33202100     0.00032223
    5 H                    1.0000    -0.88126434    -2.35386058    -0.04718340
    6 H                    1.0000    -1.70193834    -1.07751391     0.93006718
    7 H                    1.0000    -1.75750679    -1.01224026    -0.87430439
    8 H                    1.0000     2.21073655    -0.31726145     0.00256024
    9 H                    1.0000     1.47306054    -2.03067601     0.00490742

      Atomic Mass 
      ----------- 

      C                 12.000000
      Cl                34.968850
      H                  1.007825


 Effective nuclear repulsion energy (a.u.)     147.8470532569

            Nuclear Dipole moment (a.u.) 
            ----------------------------
        X                 Y               Z
 ---------------- ---------------- ----------------
    -0.0000000000     0.0000000000     0.0000000000



                                Z-matrix (autoz)
                                -------- 

 Units are Angstrom for bonds and degrees for angles

      Type          Name      I     J     K     L     M      Value
      ----------- --------  ----- ----- ----- ----- ----- ----------
    1 Stretch                  1     2                       1.50053
    2 Stretch                  1     5                       1.11118
    3 Stretch                  1     6                       1.10983
    4 Stretch                  1     7                       1.10985
    5 Stretch                  2     3                       1.33732
    6 Stretch                  2     4                       1.75802
    7 Stretch                  3     8                       1.08538
    8 Stretch                  3     9                       1.08573
    9 Bend                     1     2     3               121.60487
   10 Bend                     1     2     4               118.85620
   11 Bend                     2     1     5               111.91464
   12 Bend                     2     1     6               109.32026
   13 Bend                     2     1     7               109.34013
   14 Bend                     2     3     8               120.37891
   15 Bend                     2     3     9               121.16258
   16 Bend                     3     2     4               119.53345
   17 Bend                     5     1     6               108.70853
   18 Bend                     5     1     7               108.56710
   19 Bend                     6     1     7               108.94021
   20 Bend                     8     3     9               118.45851
   21 Torsion                  1     2     3     8        -179.58853
   22 Torsion                  1     2     3     9           0.40365
   23 Torsion                  3     2     1     5          -3.28116
   24 Torsion                  3     2     1     6         117.21032
   25 Torsion                  3     2     1     7        -123.60850
   26 Torsion                  4     2     1     5         177.57466
   27 Torsion                  4     2     1     6         -61.93386
   28 Torsion                  4     2     1     7          57.24731
   29 Torsion                  4     2     3     8          -0.45002
   30 Torsion                  4     2     3     9         179.54216


            XYZ format geometry
            -------------------
     9
 geometry
 C                    -1.12633721    -1.27111544     0.00112726
 C                     0.10726533    -0.41684896    -0.00565254
 C                     1.33187698    -0.95416972     0.00093779
 Cl                   -0.07175990     1.33202100     0.00032223
 H                    -0.88126434    -2.35386058    -0.04718340
 H                    -1.70193834    -1.07751391     0.93006718
 H                    -1.75750679    -1.01224026    -0.87430439
 H                     2.21073655    -0.31726145     0.00256024
 H                     1.47306054    -2.03067601     0.00490742

 ==============================================================================
                                internuclear distances
 ------------------------------------------------------------------------------
       center one      |      center two      | atomic units |  angstroms
 ------------------------------------------------------------------------------
    2 C                |   1 C                |     2.83559  |     1.50053
    3 C                |   2 C                |     2.52717  |     1.33732
    4 Cl               |   2 C                |     3.32217  |     1.75802
    5 H                |   1 C                |     2.09983  |     1.11118
    6 H                |   1 C                |     2.09728  |     1.10983
    7 H                |   1 C                |     2.09732  |     1.10985
    8 H                |   3 C                |     2.05107  |     1.08538
    9 H                |   3 C                |     2.05174  |     1.08573
 ------------------------------------------------------------------------------
                         number of included internuclear distances:          8
 ==============================================================================



 ==============================================================================
                                 internuclear angles
 ------------------------------------------------------------------------------
        center 1       |       center 2       |       center 3       |  degrees
 ------------------------------------------------------------------------------
    2 C                |   1 C                |   5 H                |   111.91
    2 C                |   1 C                |   6 H                |   109.32
    2 C                |   1 C                |   7 H                |   109.34
    5 H                |   1 C                |   6 H                |   108.71
    5 H                |   1 C                |   7 H                |   108.57
    6 H                |   1 C                |   7 H                |   108.94
    1 C                |   2 C                |   3 C                |   121.60
    1 C                |   2 C                |   4 Cl               |   118.86
    3 C                |   2 C                |   4 Cl               |   119.53
    2 C                |   3 C                |   8 H                |   120.38
    2 C                |   3 C                |   9 H                |   121.16
    8 H                |   3 C                |   9 H                |   118.46
 ------------------------------------------------------------------------------
                            number of included internuclear angles:         12
 ==============================================================================





 Summary of "ao basis" -> "" (spherical)
 ------------------------------------------------------------------------------
       Tag                 Description            Shells   Functions and Types
 ---------------- ------------------------------  ------  ---------------------
 *                           6-311G                   on all atoms 




                           NWChem Geometry Optimization
                           ----------------------------




                               Molecule conformer 0


  no constraints, skipping    0.0000000000000000     
 maximum gradient threshold         (gmax) =   0.000450
 rms gradient threshold             (grms) =   0.000300
 maximum cartesian step threshold   (xmax) =   0.001800
 rms cartesian step threshold       (xrms) =   0.001200
 fixed trust radius                (trust) =   0.300000
 maximum step size to saddle      (sadstp) =   0.100000
 energy precision                  (eprec) =   5.0D-06
 maximum number of steps          (nptopt) =  500
 initial hessian option           (inhess) =    0
 line search option               (linopt) =    1
 hessian update option            (modupd) =    1
 saddle point option              (modsad) =    0
 initial eigen-mode to follow     (moddir) =    0
 initial variable to follow       (vardir) =    0
 follow first negative mode     (firstneg) =    T
 apply conjugacy                    (opcg) =    F
 source of zmatrix                         =   autoz   


          -------------------
          Energy Minimization
          -------------------


 Names of Z-matrix variables 
    1              2              3              4              5         
    6              7              8              9             10         
   11             12             13             14             15         
   16             17             18             19             20         
   21             22             23             24             25         
   26             27             28             29             30         

 Variables with the same non-blank name are constrained to be equal


 Using diagonal initial Hessian 
 Scaling for Hessian diagonals: bonds = 1.00  angles = 0.25  torsions = 0.10

          --------
          Step   0
          --------


                         Geometry "geometry" -> "geometry"
                         ---------------------------------

 Output coordinates in angstroms (scale by  1.889725989 to convert to a.u.)

  No.       Tag          Charge          X              Y              Z
 ---- ---------------- ---------- -------------- -------------- --------------
    1 C                    6.0000    -1.12633721    -1.27111544     0.00112726
    2 C                    6.0000     0.10726533    -0.41684896    -0.00565254
    3 C                    6.0000     1.33187698    -0.95416972     0.00093779
    4 Cl                  17.0000    -0.07175990     1.33202100     0.00032223
    5 H                    1.0000    -0.88126434    -2.35386058    -0.04718340
    6 H                    1.0000    -1.70193834    -1.07751391     0.93006718
    7 H                    1.0000    -1.75750679    -1.01224026    -0.87430439
    8 H                    1.0000     2.21073655    -0.31726145     0.00256024
    9 H                    1.0000     1.47306054    -2.03067601     0.00490742

      Atomic Mass 
      ----------- 

      C                 12.000000
      Cl                34.968850
      H                  1.007825


 Effective nuclear repulsion energy (a.u.)     147.8470532569

            Nuclear Dipole moment (a.u.) 
            ----------------------------
        X                 Y               Z
 ---------------- ---------------- ----------------
    -0.0000000000     0.0000000000     0.0000000000


                                 NWChem DFT Module
                                 -----------------


                               Molecule conformer 0


                      Basis "ao basis" -> "ao basis" (spherical)
                      -----
  C (Carbon)
  ----------
            Exponent  Coefficients 
       -------------- ---------------------------------------------------------
  1 S  4.56324000E+03  0.001967
  1 S  6.82024000E+02  0.015231
  1 S  1.54973000E+02  0.076127
  1 S  4.44553000E+01  0.260801
  1 S  1.30290000E+01  0.616462
  1 S  1.82773000E+00  0.221006

  2 S  2.09642000E+01  0.114660
  2 S  4.80331000E+00  0.919999
  2 S  1.45933000E+00 -0.003031

  3 P  2.09642000E+01  0.040249
  3 P  4.80331000E+00  0.237594
  3 P  1.45933000E+00  0.815854

  4 S  4.83456000E-01  1.000000

  5 P  4.83456000E-01  1.000000

  6 S  1.45585000E-01  1.000000

  7 P  1.45585000E-01  1.000000

  Cl (Chlorine)
  -------------
            Exponent  Coefficients 
       -------------- ---------------------------------------------------------
  1 S  1.05819000E+05  0.000738
  1 S  1.58720000E+04  0.005718
  1 S  3.61965000E+03  0.029495
  1 S  1.03080000E+03  0.117286
  1 S  3.39908000E+02  0.362949
  1 S  1.24538000E+02  0.584149

  2 S  1.24538000E+02  0.134177
  2 S  4.95135000E+01  0.624250
  2 S  2.08056000E+01  0.291756

  3 S  6.58346000E+00  1.000000

  4 S  2.56468000E+00  1.000000

  5 S  5.59763000E-01  1.000000

  6 S  1.83273000E-01  1.000000

  7 P  5.89776000E+02  0.002391
  7 P  1.39849000E+02  0.018504
  7 P  4.51413000E+01  0.081377
  7 P  1.68733000E+01  0.221552
  7 P  6.74110000E+00  0.772569

  8 P  6.74110000E+00 -1.572244
  8 P  2.77152000E+00  0.992389

  9 P  1.02387000E+00  1.000000

 10 P  3.81368000E-01  1.000000

 11 P  1.09437000E-01  1.000000

  H (Hydrogen)
  ------------
            Exponent  Coefficients 
       -------------- ---------------------------------------------------------
  1 S  3.38650000E+01  0.025494
  1 S  5.09479000E+00  0.190373
  1 S  1.15879000E+00  0.852161

  2 S  3.25840000E-01  1.000000

  3 S  1.02741000E-01  1.000000



 Summary of "ao basis" -> "ao basis" (spherical)
 ------------------------------------------------------------------------------
       Tag                 Description            Shells   Functions and Types
 ---------------- ------------------------------  ------  ---------------------
 C                           6-311G                  7       13   4s3p
 Cl                          6-311G                 11       21   6s5p
 H                           6-311G                  3        3   3s




 Summary of "ao basis" -> "ao basis" (spherical)
 ------------------------------------------------------------------------------
       Tag                 Description            Shells   Functions and Types
 ---------------- ------------------------------  ------  ---------------------
 C                           6-311G                  7       13   4s3p
 Cl                          6-311G                 11       21   6s5p
 H                           6-311G                  3        3   3s


  Caching 1-el integrals 

            General Information
            -------------------
          SCF calculation type: DFT
          Wavefunction type:  closed shell.
          No. of atoms     :     9
          No. of electrons :    40
           Alpha electrons :    20
            Beta electrons :    20
          Charge           :     0
          Spin multiplicity:     1
          Use of symmetry is: off; symmetry adaption is: off
          Maximum number of iterations: ***
          This is a Direct SCF calculation.
          AO basis - number of functions:    75
                     number of shells:    47
          Convergence on energy requested:  1.00D-06
          Convergence on density requested:  1.00D-05
          Convergence on gradient requested:  5.00D-04

              XC Information
              --------------
                         B3LYP Method XC Potential
                     Hartree-Fock (Exact) Exchange  0.200          
                        Slater Exchange Functional  0.800 local    
                    Becke 1988 Exchange Functional  0.720 non-local
              Lee-Yang-Parr Correlation Functional  0.810          
                  VWN I RPA Correlation Functional  0.190 local    

             Grid Information
             ----------------
          Grid used for XC integration:  fine      
          Radial quadrature: Mura-Knowles        
          Angular quadrature: Lebedev. 
          Tag              B.-S. Rad. Rad. Pts. Rad. Cut. Ang. Pts.
          ---              ---------- --------- --------- ---------
          C                   0.70       70          11.0       590
          Cl                  1.00      123          11.0       770
          H                   0.35       60          12.0       590
          Grid pruning is: on 
          Number of quadrature shells:   633
          Spatial weights used:  Erf1

          Convergence Information
          -----------------------
          Convergence aids based upon iterative change in 
          total energy or number of iterations. 
          Levelshifting, if invoked, occurs when the 
          HOMO/LUMO gap drops below (HL_TOL):  1.00D-02
          DIIS, if invoked, will attempt to extrapolate 
          using up to (NFOCK): 10 stored Fock matrices.

                    Damping( 0%)  Levelshifting(0.5)       DIIS
                  --------------- ------------------- ---------------
          dE  on:    start            ASAP                start   
          dE off:    2 iters        *** iters           *** iters 


      Screening Tolerance Information
      -------------------------------
          Density screening/tol_rho:  1.00D-10
          AO Gaussian exp screening on grid/accAOfunc:  14
          CD Gaussian exp screening on grid/accCDfunc:  20
          XC Gaussian exp screening on grid/accXCfunc:  20
          Schwarz screening/accCoul:  1.00D-08

          Performing ZORA calculations
          ----------------------------


      Superposition of Atomic Density Guess
      -------------------------------------

 Sum of atomic energies:        -574.98156165

 Read atomic ZORA corrections from ./CC(=C)Cl_mol_9_conformer_0.zora_sf

 dft_zora_read: failed to open./CC(=C)Cl_mol_9_conformer_0.zora_sf
 Forcing recalculation of ZORA corrections
       Generating atomic ZORA corrections
       ----------------------------------

 In dft_scf:: zora:Knucl= F

 Grid_pts file          = ./CC(=C)Cl_mol_9_conformer_0.gridpts.00
 Record size in doubles =  12289        No. of grid_pts per rec  =   3070
 Max. records in memory =      6        Max. recs in file   =     13476


 Wrote atomic ZORA corrections to ./CC(=C)Cl_mol_9_conformer_0.zora_sf


      Superposition of Atomic Density Guess
      -------------------------------------

 Sum of atomic energies:        -574.98156165

      Non-variational initial energy
      ------------------------------

 Total energy =    -577.068303
 1-e energy   =   -1082.135165
 2-e energy   =     357.219809
 HOMO         =      -0.281523
 LUMO         =       0.035216

   Time after variat. SCF:      7.4
   Time prior to 1st pass:      7.4
 Grid integrated density:      40.000005481805
 Requested integration accuracy:   0.10E-06

           Memory utilization after 1st SCF pass: 
           Heap Space remaining (MW):      130.99           130994146
          Stack Space remaining (MW):      131.06           131060060

   convergence    iter        energy       DeltaE   RMS-Dens  Diis-err    time
 ---------------- ----- ----------------- --------- --------- ---------  ------
 d= 0,ls=0.0,diis     1   -579.6398333301 -7.27D+02  1.44D-02  3.77D+01    10.3
 Grid integrated density:      40.000004818058
 Requested integration accuracy:   0.10E-06
 d= 0,ls=0.0,diis     2   -579.6440924279 -4.26D-03  2.01D-02  7.84D-01    12.8
 d= 0,ls=0.0,diis     3   -579.4887855985  1.55D-01  1.25D-02  1.74D+00    15.4
 d= 0,ls=0.0,diis     4   -579.7367883862 -2.48D-01  1.48D-03  1.36D-02    18.1
 d= 0,ls=0.0,diis     5   -579.7382444491 -1.46D-03  7.19D-04  2.93D-03    21.0
  Resetting Diis
 d= 0,ls=0.0,diis     6   -579.7386370801 -3.93D-04  9.31D-05  5.94D-05    24.1
 d= 0,ls=0.0,diis     7   -579.7386426605 -5.58D-06  5.04D-05  3.96D-06    26.8
 d= 0,ls=0.0,diis     8   -579.7386423837  2.77D-07  2.50D-05  6.36D-06    29.4
 d= 0,ls=0.0,diis     9   -579.7386431867 -8.03D-07  3.98D-06  2.20D-07    32.0
(nogshift,skip_gshiftAOev,done_Fji)=( 1,F,F)


         Total DFT energy =     -579.738643186655
      One electron energy =    -1087.877590555706
           Coulomb energy =      406.771157467199
    Exchange-Corr. energy =      -46.479263355043
 Nuclear repulsion energy =      147.847053256895

       Scaling correction =        0.810204062522

 Numeric. integr. density =       40.000001263179

     Total iterative time =     24.7s



 center of mass
 --------------
 x =   0.01447596 y =   0.19961709 z =  -0.00038808

 moments of inertia (a.u.)
 ------------------
         383.120440088262           0.000000000000           0.000000000000
           0.000000000000         187.110848020823          -0.000000000000
           0.000000000000          -0.000000000000         558.483431787879

            General Information
            -------------------
          SCF calculation type: DFT
          Wavefunction type:  closed shell.
          No. of atoms     :     9
          No. of electrons :    40
           Alpha electrons :    20
            Beta electrons :    20
          Charge           :     0
          Spin multiplicity:     1
          Use of symmetry is: off; symmetry adaption is: off
          Maximum number of iterations: ***
          This is a Direct SCF calculation.
          AO basis - number of functions:    75
                     number of shells:    47
          Convergence on energy requested:  1.00D-06
          Convergence on density requested:  1.00D-05
          Convergence on gradient requested:  5.00D-04

              XC Information
              --------------
                         B3LYP Method XC Potential
                     Hartree-Fock (Exact) Exchange  0.200          
                        Slater Exchange Functional  0.800 local    
                    Becke 1988 Exchange Functional  0.720 non-local
              Lee-Yang-Parr Correlation Functional  0.810          
                  VWN I RPA Correlation Functional  0.190 local    

             Grid Information
             ----------------
          Grid used for XC integration:  fine      
          Radial quadrature: Mura-Knowles        
          Angular quadrature: Lebedev. 
          Tag              B.-S. Rad. Rad. Pts. Rad. Cut. Ang. Pts.
          ---              ---------- --------- --------- ---------
          C                   0.70       70          11.0       590
          Cl                  1.00      123          11.0       770
          H                   0.35       60          12.0       590
          Grid pruning is: on 
          Number of quadrature shells:   633
          Spatial weights used:  Erf1

          Convergence Information
          -----------------------
          Convergence aids based upon iterative change in 
          total energy or number of iterations. 
          Levelshifting, if invoked, occurs when the 
          HOMO/LUMO gap drops below (HL_TOL):  1.00D-02
          DIIS, if invoked, will attempt to extrapolate 
          using up to (NFOCK): 10 stored Fock matrices.

                    Damping( 0%)  Levelshifting(0.5)       DIIS
                  --------------- ------------------- ---------------
          dE  on:    start            ASAP                start   
          dE off:    2 iters        *** iters           *** iters 


      Screening Tolerance Information
      -------------------------------
          Density screening/tol_rho:  1.00D-10
          AO Gaussian exp screening on grid/accAOfunc:  14
          CD Gaussian exp screening on grid/accCDfunc:  20
          XC Gaussian exp screening on grid/accXCfunc:  20
          Schwarz screening/accCoul:  1.00D-08



                            NWChem DFT Gradient Module
                            --------------------------


                               Molecule conformer 0



  charge          =   0.00
  wavefunction    = closed shell



                         DFT ENERGY GRADIENTS

    atom               coordinates                        gradient
                 x          y          z           x          y          z
   1 C      -2.128469  -2.402060   0.002130    0.014092  -0.007080   0.000590
   2 C       0.202702  -0.787730  -0.010682   -0.019996   0.052129  -0.000748
   3 C       2.516883  -1.803119   0.001772   -0.001253  -0.011668   0.000422
   4 Cl     -0.135607   2.517155   0.000609    0.008871  -0.027467   0.000104
   5 H      -1.665348  -4.448152  -0.089164    0.000489  -0.014880  -0.000771
   6 H      -3.216197  -2.036206   1.757572   -0.001335   0.003559   0.010708
   7 H      -3.321206  -1.912857  -1.652196   -0.002034   0.004509  -0.010410
   8 H       4.177686  -0.599537   0.004838    0.000285   0.004689  -0.000091
   9 H       2.783681  -3.837421   0.009274    0.000881  -0.003791   0.000197

                 ----------------------------------------
                 |  Time  |  1-e(secs)   |  2-e(secs)   |
                 ----------------------------------------
                 |  CPU   |       0.00   |       0.11   |
                 ----------------------------------------
                 |  WALL  |       0.00   |       0.11   |
                 ----------------------------------------
  no constraints, skipping    0.0000000000000000     

@ Step       Energy      Delta E   Gmax     Grms     Xrms     Xmax   Walltime
@ ---- ---------------- -------- -------- -------- -------- -------- --------
@    0    -579.73864319  0.0D+00  0.02823  0.00711  0.00000  0.00000     35.0
                                                                    



                                Z-matrix (autoz)
                                -------- 

 Units are Angstrom for bonds and degrees for angles

      Type          Name      I     J     K     L     M      Value     Gradient
      ----------- --------  ----- ----- ----- ----- ----- ---------- ----------
    1 Stretch                  1     2                       1.50053   -0.00131
    2 Stretch                  1     5                       1.11118    0.01464
    3 Stretch                  1     6                       1.10983    0.01028
    4 Stretch                  1     7                       1.10985    0.01042
    5 Stretch                  2     3                       1.33732    0.00425
    6 Stretch                  2     4                       1.75802   -0.02823
    7 Stretch                  3     8                       1.08538    0.00298
    8 Stretch                  3     9                       1.08573    0.00387
    9 Bend                     1     2     3               121.60487   -0.00946
   10 Bend                     1     2     4               118.85620    0.01003
   11 Bend                     2     1     5               111.91464    0.00342
   12 Bend                     2     1     6               109.32026   -0.00339
   13 Bend                     2     1     7               109.34013   -0.00354
   14 Bend                     2     3     8               120.37891   -0.00276
   15 Bend                     2     3     9               121.16258    0.00159
   16 Bend                     3     2     4               119.53345   -0.00057
   17 Bend                     5     1     6               108.70853    0.00031
   18 Bend                     5     1     7               108.56710    0.00029
   19 Bend                     6     1     7               108.94021    0.00300
   20 Bend                     8     3     9               118.45851    0.00118
   21 Torsion                  1     2     3     8        -179.58853    0.00002
   22 Torsion                  1     2     3     9           0.40365   -0.00003
   23 Torsion                  3     2     1     5          -3.28116   -0.00019
   24 Torsion                  3     2     1     6         117.21032    0.00012
   25 Torsion                  3     2     1     7        -123.60850   -0.00037
   26 Torsion                  4     2     1     5         177.57466    0.00000
   27 Torsion                  4     2     1     6         -61.93386    0.00031
   28 Torsion                  4     2     1     7          57.24731   -0.00018
   29 Torsion                  4     2     3     8          -0.45002   -0.00009
   30 Torsion                  4     2     3     9         179.54216   -0.00014

  no constraints, skipping    0.0000000000000000     
  no constraints, skipping    0.0000000000000000     
  no constraints, skipping    0.0000000000000000     
  no constraints, skipping    0.0000000000000000     
  no constraints, skipping    0.0000000000000000     
  no constraints, skipping    0.0000000000000000     
  no constraints, skipping    0.0000000000000000     
  no constraints, skipping    0.0000000000000000     

                                 NWChem DFT Module
                                 -----------------


                               Molecule conformer 0




 Summary of "ao basis" -> "ao basis" (spherical)
 ------------------------------------------------------------------------------
       Tag                 Description            Shells   Functions and Types
 ---------------- ------------------------------  ------  ---------------------
 C                           6-311G                  7       13   4s3p
 Cl                          6-311G                 11       21   6s5p
 H                           6-311G                  3        3   3s


  Caching 1-el integrals 

            General Information
            -------------------
          SCF calculation type: DFT
          Wavefunction type:  closed shell.
          No. of atoms     :     9
          No. of electrons :    40
           Alpha electrons :    20
            Beta electrons :    20
          Charge           :     0
          Spin multiplicity:     1
          Use of symmetry is: off; symmetry adaption is: off
          Maximum number of iterations: ***
          This is a Direct SCF calculation.
          AO basis - number of functions:    75
                     number of shells:    47
          Convergence on energy requested:  1.00D-06
          Convergence on density requested:  1.00D-05
          Convergence on gradient requested:  5.00D-04

              XC Information
              --------------
                         B3LYP Method XC Potential
                     Hartree-Fock (Exact) Exchange  0.200          
                        Slater Exchange Functional  0.800 local    
                    Becke 1988 Exchange Functional  0.720 non-local
              Lee-Yang-Parr Correlation Functional  0.810          
                  VWN I RPA Correlation Functional  0.190 local    

             Grid Information
             ----------------
          Grid used for XC integration:  fine      
          Radial quadrature: Mura-Knowles        
          Angular quadrature: Lebedev. 
          Tag              B.-S. Rad. Rad. Pts. Rad. Cut. Ang. Pts.
          ---              ---------- --------- --------- ---------
          C                   0.70       70          11.0       590
          Cl                  1.00      123          11.0       770
          H                   0.35       60          12.0       590
          Grid pruning is: on 
          Number of quadrature shells:   633
          Spatial weights used:  Erf1

          Convergence Information
          -----------------------
          Convergence aids based upon iterative change in 
          total energy or number of iterations. 
          Levelshifting, if invoked, occurs when the 
          HOMO/LUMO gap drops below (HL_TOL):  1.00D-02
          DIIS, if invoked, will attempt to extrapolate 
          using up to (NFOCK): 10 stored Fock matrices.

                    Damping( 0%)  Levelshifting(0.5)       DIIS
                  --------------- ------------------- ---------------
          dE  on:    start            ASAP                start   
          dE off:    2 iters        *** iters           *** iters 


      Screening Tolerance Information
      -------------------------------
          Density screening/tol_rho:  1.00D-10
          AO Gaussian exp screening on grid/accAOfunc:  14
          CD Gaussian exp screening on grid/accCDfunc:  20
          XC Gaussian exp screening on grid/accXCfunc:  20
          Schwarz screening/accCoul:  1.00D-08

          Performing ZORA calculations
          ----------------------------


      Superposition of Atomic Density Guess
      -------------------------------------

 Sum of atomic energies:        -574.98156165

 Read atomic ZORA corrections from ./CC(=C)Cl_mol_9_conformer_0.zora_sf

 Forcing recalculation of ZORA corrections
       Generating atomic ZORA corrections
       ----------------------------------

 In dft_scf:: zora:Knucl= F

 Grid_pts file          = ./CC(=C)Cl_mol_9_conformer_0.gridpts.00
 Record size in doubles =  12289        No. of grid_pts per rec  =   3070
 Max. records in memory =      6        Max. recs in file   =     13476


 Wrote atomic ZORA corrections to ./CC(=C)Cl_mol_9_conformer_0.zora_sf


 Loading old vectors from job with title :

Molecule conformer 0

   Time after variat. SCF:     43.2
   Time prior to 1st pass:     43.2

           Memory utilization after 1st SCF pass: 
           Heap Space remaining (MW):      130.99           130994146
          Stack Space remaining (MW):      131.06           131060060

   convergence    iter        energy       DeltaE   RMS-Dens  Diis-err    time
 ---------------- ----- ----------------- --------- --------- ---------  ------
 d= 0,ls=0.0,diis     1   -579.7415522562 -7.27D+02  2.06D-03  8.33D-03    45.9
 d= 0,ls=0.0,diis     2   -579.7431325365 -1.58D-03  5.50D-04  1.68D-03    48.5
 d= 0,ls=0.0,diis     3   -579.7431694331 -3.69D-05  3.20D-04  1.34D-03    50.8
 d= 0,ls=0.0,diis     4   -579.7433199475 -1.51D-04  9.70D-05  1.18D-04    53.1
 d= 0,ls=0.0,diis     5   -579.7433358854 -1.59D-05  1.85D-05  1.40D-06    55.8
 d= 0,ls=0.0,diis     6   -579.7433360653 -1.80D-07  5.55D-06  4.15D-08    58.4
(nogshift,skip_gshiftAOev,done_Fji)=( 1,F,F)


         Total DFT energy =     -579.743336065279
      One electron energy =    -1086.414235221984
           Coulomb energy =      406.066716575870
    Exchange-Corr. energy =      -46.488571130562
 Nuclear repulsion energy =      147.092753711397

       Scaling correction =        0.810141239017

 Numeric. integr. density =       39.999998244262

     Total iterative time =     15.4s



 center of mass
 --------------
 x =  -0.01318753 y =   0.17974753 z =  -0.00004397

 moments of inertia (a.u.)
 ------------------
         379.847987600699           9.309149523849           0.047815908797
           9.309149523849         195.503283059659           0.050003948601
           0.047815908797           0.050003948601         564.191763005775
 Line search: 
     step= 1.00 grad=-7.5D-03 hess= 2.8D-03 energy=   -579.743336 mode=downhill
 new step= 1.33                   predicted energy=   -579.743638
  no constraints, skipping    0.0000000000000000     
  no constraints, skipping    0.0000000000000000     
  no constraints, skipping    0.0000000000000000     
  no constraints, skipping    0.0000000000000000     
  no constraints, skipping    0.0000000000000000     
  no constraints, skipping    0.0000000000000000     
  no constraints, skipping    0.0000000000000000     
  no constraints, skipping    0.0000000000000000     

          --------
          Step   1
          --------


                         Geometry "geometry" -> "geometry"
                         ---------------------------------

 Output coordinates in angstroms (scale by  1.889725989 to convert to a.u.)

  No.       Tag          Charge          X              Y              Z
 ---- ---------------- ---------- -------------- -------------- --------------
    1 C                    6.0000    -1.14703546    -1.25653978     0.00156053
    2 C                    6.0000     0.13730100    -0.47606412    -0.00380702
    3 C                    6.0000     1.37793756    -0.96013084     0.00083144
    4 Cl                  17.0000    -0.13387713     1.31635819     0.00013862
    5 H                    1.0000    -0.92664015    -2.31309809    -0.04422010
    6 H                    1.0000    -1.73246691    -1.06523187     0.89868540
    7 H                    1.0000    -1.78096527    -1.00176931    -0.84505973
    8 H                    1.0000     2.24689890    -0.31982435     0.00210398
    9 H                    1.0000     1.54298029    -2.02536516     0.00254867

      Atomic Mass 
      ----------- 

      C                 12.000000
      Cl                34.968850
      H                  1.007825


 Effective nuclear repulsion energy (a.u.)     146.8781829335

            Nuclear Dipole moment (a.u.) 
            ----------------------------
        X                 Y               Z
 ---------------- ---------------- ----------------
    -1.3547176062    -0.9516810918     0.0149749136


                                 NWChem DFT Module
                                 -----------------


                               Molecule conformer 0




 Summary of "ao basis" -> "ao basis" (spherical)
 ------------------------------------------------------------------------------
       Tag                 Description            Shells   Functions and Types
 ---------------- ------------------------------  ------  ---------------------
 C                           6-311G                  7       13   4s3p
 Cl                          6-311G                 11       21   6s5p
 H                           6-311G                  3        3   3s


  Caching 1-el integrals 

            General Information
            -------------------
          SCF calculation type: DFT
          Wavefunction type:  closed shell.
          No. of atoms     :     9
          No. of electrons :    40
           Alpha electrons :    20
            Beta electrons :    20
          Charge           :     0
          Spin multiplicity:     1
          Use of symmetry is: off; symmetry adaption is: off
          Maximum number of iterations: ***
          This is a Direct SCF calculation.
          AO basis - number of functions:    75
                     number of shells:    47
          Convergence on energy requested:  1.00D-06
          Convergence on density requested:  1.00D-05
          Convergence on gradient requested:  5.00D-04

              XC Information
              --------------
                         B3LYP Method XC Potential
                     Hartree-Fock (Exact) Exchange  0.200          
                        Slater Exchange Functional  0.800 local    
                    Becke 1988 Exchange Functional  0.720 non-local
              Lee-Yang-Parr Correlation Functional  0.810          
                  VWN I RPA Correlation Functional  0.190 local    

             Grid Information
             ----------------
          Grid used for XC integration:  fine      
          Radial quadrature: Mura-Knowles        
          Angular quadrature: Lebedev. 
          Tag              B.-S. Rad. Rad. Pts. Rad. Cut. Ang. Pts.
          ---              ---------- --------- --------- ---------
          C                   0.70       70          11.0       590
          Cl                  1.00      123          11.0       770
          H                   0.35       60          12.0       590
          Grid pruning is: on 
          Number of quadrature shells:   633
          Spatial weights used:  Erf1

          Convergence Information
          -----------------------
          Convergence aids based upon iterative change in 
          total energy or number of iterations. 
          Levelshifting, if invoked, occurs when the 
          HOMO/LUMO gap drops below (HL_TOL):  1.00D-02
          DIIS, if invoked, will attempt to extrapolate 
          using up to (NFOCK): 10 stored Fock matrices.

                    Damping( 0%)  Levelshifting(0.5)       DIIS
                  --------------- ------------------- ---------------
          dE  on:    start            ASAP                start   
          dE off:    2 iters        *** iters           *** iters 


      Screening Tolerance Information
      -------------------------------
          Density screening/tol_rho:  1.00D-10
          AO Gaussian exp screening on grid/accAOfunc:  14
          CD Gaussian exp screening on grid/accCDfunc:  20
          XC Gaussian exp screening on grid/accXCfunc:  20
          Schwarz screening/accCoul:  1.00D-08

          Performing ZORA calculations
          ----------------------------


      Superposition of Atomic Density Guess
      -------------------------------------

 Sum of atomic energies:        -574.98156165

 Read atomic ZORA corrections from ./CC(=C)Cl_mol_9_conformer_0.zora_sf

 Forcing recalculation of ZORA corrections
       Generating atomic ZORA corrections
       ----------------------------------

 In dft_scf:: zora:Knucl= F

 Grid_pts file          = ./CC(=C)Cl_mol_9_conformer_0.gridpts.00
 Record size in doubles =  12289        No. of grid_pts per rec  =   3070
 Max. records in memory =      6        Max. recs in file   =     13466


 Wrote atomic ZORA corrections to ./CC(=C)Cl_mol_9_conformer_0.zora_sf


 Loading old vectors from job with title :

Molecule conformer 0

   Time after variat. SCF:     67.2
   Time prior to 1st pass:     67.2

           Memory utilization after 1st SCF pass: 
           Heap Space remaining (MW):      130.99           130994146
          Stack Space remaining (MW):      131.06           131060060

   convergence    iter        energy       DeltaE   RMS-Dens  Diis-err    time
 ---------------- ----- ----------------- --------- --------- ---------  ------
 d= 0,ls=0.0,diis     1   -579.7434800065 -7.27D+02  6.92D-04  8.58D-04    69.4
 d= 0,ls=0.0,diis     2   -579.7436460906 -1.66D-04  1.76D-04  1.64D-04    71.4
 d= 0,ls=0.0,diis     3   -579.7436498220 -3.73D-06  9.94D-05  1.31D-04    74.0
 d= 0,ls=0.0,diis     4   -579.7436644940 -1.47D-05  3.06D-05  1.16D-05    76.6
 d= 0,ls=0.0,diis     5   -579.7436660557 -1.56D-06  5.90D-06  1.51D-07    79.2
 d= 0,ls=0.0,diis     6   -579.7436660750 -1.93D-08  1.76D-06  3.88D-09    82.0
(nogshift,skip_gshiftAOev,done_Fji)=( 1,F,F)


         Total DFT energy =     -579.743666074979
      One electron energy =    -1085.996557204464
           Coulomb energy =      405.866831750906
    Exchange-Corr. energy =      -46.492123554882
 Nuclear repulsion energy =      146.878182933461

       Scaling correction =        0.810120476452

 Numeric. integr. density =       39.999998045987

     Total iterative time =     14.9s



 center of mass
 --------------
 x =  -0.02283278 y =   0.17256363 z =   0.00005059

 moments of inertia (a.u.)
 ------------------
         378.565583493540          12.495659080908           0.060461754604
          12.495659080908         198.283366227280           0.069925756387
           0.060461754604           0.069925756387         565.879618876069

            General Information
            -------------------
          SCF calculation type: DFT
          Wavefunction type:  closed shell.
          No. of atoms     :     9
          No. of electrons :    40
           Alpha electrons :    20
            Beta electrons :    20
          Charge           :     0
          Spin multiplicity:     1
          Use of symmetry is: off; symmetry adaption is: off
          Maximum number of iterations: ***
          This is a Direct SCF calculation.
          AO basis - number of functions:    75
                     number of shells:    47
          Convergence on energy requested:  1.00D-06
          Convergence on density requested:  1.00D-05
          Convergence on gradient requested:  5.00D-04

              XC Information
              --------------
                         B3LYP Method XC Potential
                     Hartree-Fock (Exact) Exchange  0.200          
                        Slater Exchange Functional  0.800 local    
                    Becke 1988 Exchange Functional  0.720 non-local
              Lee-Yang-Parr Correlation Functional  0.810          
                  VWN I RPA Correlation Functional  0.190 local    

             Grid Information
             ----------------
          Grid used for XC integration:  fine      
          Radial quadrature: Mura-Knowles        
          Angular quadrature: Lebedev. 
          Tag              B.-S. Rad. Rad. Pts. Rad. Cut. Ang. Pts.
          ---              ---------- --------- --------- ---------
          C                   0.70       70          11.0       590
          Cl                  1.00      123          11.0       770
          H                   0.35       60          12.0       590
          Grid pruning is: on 
          Number of quadrature shells:   633
          Spatial weights used:  Erf1

          Convergence Information
          -----------------------
          Convergence aids based upon iterative change in 
          total energy or number of iterations. 
          Levelshifting, if invoked, occurs when the 
          HOMO/LUMO gap drops below (HL_TOL):  1.00D-02
          DIIS, if invoked, will attempt to extrapolate 
          using up to (NFOCK): 10 stored Fock matrices.

                    Damping( 0%)  Levelshifting(0.5)       DIIS
                  --------------- ------------------- ---------------
          dE  on:    start            ASAP                start   
          dE off:    2 iters        *** iters           *** iters 


      Screening Tolerance Information
      -------------------------------
          Density screening/tol_rho:  1.00D-10
          AO Gaussian exp screening on grid/accAOfunc:  14
          CD Gaussian exp screening on grid/accCDfunc:  20
          XC Gaussian exp screening on grid/accXCfunc:  20
          Schwarz screening/accCoul:  1.00D-08



                            NWChem DFT Gradient Module
                            --------------------------


                               Molecule conformer 0



  charge          =   0.00
  wavefunction    = closed shell



                         DFT ENERGY GRADIENTS

    atom               coordinates                        gradient
                 x          y          z           x          y          z
   1 C      -2.167583  -2.374516   0.002949   -0.003475  -0.004669   0.000193
   2 C       0.259461  -0.899631  -0.007194   -0.000624   0.017455  -0.000598
   3 C       2.603924  -1.814384   0.001571    0.005238  -0.007077   0.000347
   4 Cl     -0.252991   2.487556   0.000262    0.000298  -0.012743   0.000024
   5 H      -1.751096  -4.371122  -0.083564   -0.000939   0.006726   0.000046
   6 H      -3.273888  -2.012996   1.698269   -0.000237  -0.001206  -0.002767
   7 H      -3.365536  -1.893069  -1.596931   -0.000289  -0.001367   0.002726
   8 H       4.246023  -0.604380   0.003976   -0.000093   0.000121  -0.000053
   9 H       2.915810  -3.827385   0.004816    0.000122   0.002760   0.000082

                 ----------------------------------------
                 |  Time  |  1-e(secs)   |  2-e(secs)   |
                 ----------------------------------------
                 |  CPU   |       0.00   |       0.11   |
                 ----------------------------------------
                 |  WALL  |       0.00   |       0.11   |
                 ----------------------------------------
  no constraints, skipping    0.0000000000000000     

  Step       Energy      Delta E   Gmax     Grms     Xrms     Xmax   Walltime
  ---- ---------------- -------- -------- -------- -------- -------- --------
@    1    -579.74366607 -5.0D-03  0.01264  0.00314  0.05722  0.13050     84.7
                                                                    



                                Z-matrix (autoz)
                                -------- 

 Units are Angstrom for bonds and degrees for angles

      Type          Name      I     J     K     L     M      Value     Gradient
      ----------- --------  ----- ----- ----- ----- ----- ---------- ----------
    1 Stretch                  1     2                       1.50289    0.00449
    2 Stretch                  1     5                       1.08027   -0.00677
    3 Stretch                  1     6                       1.08819   -0.00237
    4 Stretch                  1     7                       1.08791   -0.00227
    5 Stretch                  2     3                       1.33174    0.00643
    6 Stretch                  2     4                       1.81282   -0.01264
    7 Stretch                  3     8                       1.07939   -0.00000
    8 Stretch                  3     9                       1.07795   -0.00271
    9 Bend                     1     2     3               127.39748   -0.00030
   10 Bend                     1     2     4               112.68273   -0.00131
   11 Bend                     2     1     5               109.47619   -0.00080
   12 Bend                     2     1     6               111.80175    0.00121
   13 Bend                     2     1     7               111.93605    0.00130
   14 Bend                     2     3     8               122.30032   -0.00030
   15 Bend                     2     3     9               120.12179    0.00045
   16 Bend                     3     2     4               119.91688    0.00161
   17 Bend                     5     1     6               108.45993   -0.00024
   18 Bend                     5     1     7               108.35760   -0.00033
   19 Bend                     6     1     7               106.67322   -0.00122
   20 Bend                     8     3     9               117.57786   -0.00014
   21 Torsion                  1     2     3     8        -179.63610    0.00002
   22 Torsion                  1     2     3     9           0.42040    0.00001
   23 Torsion                  3     2     1     5          -3.05647   -0.00012
   24 Torsion                  3     2     1     6         117.15514   -0.00018
   25 Torsion                  3     2     1     7        -123.22601   -0.00000
   26 Torsion                  4     2     1     5         177.57186   -0.00005
   27 Torsion                  4     2     1     6         -62.21653   -0.00010
   28 Torsion                  4     2     1     7          57.40232    0.00007
   29 Torsion                  4     2     3     8          -0.30496   -0.00007
   30 Torsion                  4     2     3     9         179.75155   -0.00009

  no constraints, skipping    0.0000000000000000     
  no constraints, skipping    0.0000000000000000     
  no constraints, skipping    0.0000000000000000     
  no constraints, skipping    0.0000000000000000     
  no constraints, skipping    0.0000000000000000     
  no constraints, skipping    0.0000000000000000     
  no constraints, skipping    0.0000000000000000     
  no constraints, skipping    0.0000000000000000     

                                 NWChem DFT Module
                                 -----------------


                               Molecule conformer 0




 Summary of "ao basis" -> "ao basis" (spherical)
 ------------------------------------------------------------------------------
       Tag                 Description            Shells   Functions and Types
 ---------------- ------------------------------  ------  ---------------------
 C                           6-311G                  7       13   4s3p
 Cl                          6-311G                 11       21   6s5p
 H                           6-311G                  3        3   3s


  Caching 1-el integrals 

            General Information
            -------------------
          SCF calculation type: DFT
          Wavefunction type:  closed shell.
          No. of atoms     :     9
          No. of electrons :    40
           Alpha electrons :    20
            Beta electrons :    20
          Charge           :     0
          Spin multiplicity:     1
          Use of symmetry is: off; symmetry adaption is: off
          Maximum number of iterations: ***
          This is a Direct SCF calculation.
          AO basis - number of functions:    75
                     number of shells:    47
          Convergence on energy requested:  1.00D-06
          Convergence on density requested:  1.00D-05
          Convergence on gradient requested:  5.00D-04

              XC Information
              --------------
                         B3LYP Method XC Potential
                     Hartree-Fock (Exact) Exchange  0.200          
                        Slater Exchange Functional  0.800 local    
                    Becke 1988 Exchange Functional  0.720 non-local
              Lee-Yang-Parr Correlation Functional  0.810          
                  VWN I RPA Correlation Functional  0.190 local    

             Grid Information
             ----------------
          Grid used for XC integration:  fine      
          Radial quadrature: Mura-Knowles        
          Angular quadrature: Lebedev. 
          Tag              B.-S. Rad. Rad. Pts. Rad. Cut. Ang. Pts.
          ---              ---------- --------- --------- ---------
          C                   0.70       70          11.0       590
          Cl                  1.00      123          11.0       770
          H                   0.35       60          12.0       590
          Grid pruning is: on 
          Number of quadrature shells:   633
          Spatial weights used:  Erf1

          Convergence Information
          -----------------------
          Convergence aids based upon iterative change in 
          total energy or number of iterations. 
          Levelshifting, if invoked, occurs when the 
          HOMO/LUMO gap drops below (HL_TOL):  1.00D-02
          DIIS, if invoked, will attempt to extrapolate 
          using up to (NFOCK): 10 stored Fock matrices.

                    Damping( 0%)  Levelshifting(0.5)       DIIS
                  --------------- ------------------- ---------------
          dE  on:    start            ASAP                start   
          dE off:    2 iters        *** iters           *** iters 


      Screening Tolerance Information
      -------------------------------
          Density screening/tol_rho:  1.00D-10
          AO Gaussian exp screening on grid/accAOfunc:  14
          CD Gaussian exp screening on grid/accCDfunc:  20
          XC Gaussian exp screening on grid/accXCfunc:  20
          Schwarz screening/accCoul:  1.00D-08

          Performing ZORA calculations
          ----------------------------


      Superposition of Atomic Density Guess
      -------------------------------------

 Sum of atomic energies:        -574.98156165

 Read atomic ZORA corrections from ./CC(=C)Cl_mol_9_conformer_0.zora_sf

 Forcing recalculation of ZORA corrections
       Generating atomic ZORA corrections
       ----------------------------------

 In dft_scf:: zora:Knucl= F

 Grid_pts file          = ./CC(=C)Cl_mol_9_conformer_0.gridpts.00
 Record size in doubles =  12289        No. of grid_pts per rec  =   3070
 Max. records in memory =      6        Max. recs in file   =     13476


 Wrote atomic ZORA corrections to ./CC(=C)Cl_mol_9_conformer_0.zora_sf


 Loading old vectors from job with title :

Molecule conformer 0

   Time after variat. SCF:     92.9
   Time prior to 1st pass:     92.9

           Memory utilization after 1st SCF pass: 
           Heap Space remaining (MW):      130.99           130994146
          Stack Space remaining (MW):      131.06           131060060

   convergence    iter        energy       DeltaE   RMS-Dens  Diis-err    time
 ---------------- ----- ----------------- --------- --------- ---------  ------
 d= 0,ls=0.0,diis     1   -579.7440980590 -7.26D+02  6.80D-04  1.13D-03    95.7
 d= 0,ls=0.0,diis     2   -579.7443104981 -2.12D-04  1.91D-04  6.12D-05    98.1
 d= 0,ls=0.0,diis     3   -579.7442988037  1.17D-05  1.07D-04  1.56D-04   100.6
 d= 0,ls=0.0,diis     4   -579.7443188407 -2.00D-05  1.65D-05  2.04D-06   103.3
 d= 0,ls=0.0,diis     5   -579.7443190802 -2.40D-07  4.11D-06  3.50D-07   105.9
(nogshift,skip_gshiftAOev,done_Fji)=( 1,F,F)


         Total DFT energy =     -579.744319080245
      One electron energy =    -1085.073670556067
           Coulomb energy =      405.410811934205
    Exchange-Corr. energy =      -46.485922288955
 Nuclear repulsion energy =      146.404461830572

       Scaling correction =        0.810102225440

 Numeric. integr. density =       39.999997711461

     Total iterative time =     13.1s



 center of mass
 --------------
 x =  -0.02266695 y =   0.18041427 z =   0.00048474

 moments of inertia (a.u.)
 ------------------
         383.742296463062          12.104708437141           0.076448309621
          12.104708437141         197.500958834646           0.053564233410
           0.076448309621           0.053564233410         570.177732315092
 Line search: 
     step= 1.00 grad=-9.7D-04 hess= 3.2D-04 energy=   -579.744319 mode=downhill
 new step= 1.54                   predicted energy=   -579.744410
  no constraints, skipping    0.0000000000000000     
  no constraints, skipping    0.0000000000000000     
  no constraints, skipping    0.0000000000000000     
  no constraints, skipping    0.0000000000000000     
  no constraints, skipping    0.0000000000000000     
  no constraints, skipping    0.0000000000000000     
  no constraints, skipping    0.0000000000000000     
  no constraints, skipping    0.0000000000000000     

          --------
          Step   2
          --------


                         Geometry "geometry" -> "geometry"
                         ---------------------------------

 Output coordinates in angstroms (scale by  1.889725989 to convert to a.u.)

  No.       Tag          Charge          X              Y              Z
 ---- ---------------- ---------- -------------- -------------- --------------
    1 C                    6.0000    -1.14561465    -1.26204369     0.00174227
    2 C                    6.0000     0.13529996    -0.49364714    -0.00247704
    3 C                    6.0000     1.37216993    -0.95729124     0.00073173
    4 Cl                  17.0000    -0.13149377     1.33721766     0.00046261
    5 H                    1.0000    -0.93429679    -2.33281156    -0.04261478
    6 H                    1.0000    -1.72350653    -1.05783529     0.90395329
    7 H                    1.0000    -1.76878345    -0.99424958    -0.85170186
    8 H                    1.0000     2.23781502    -0.31404762     0.00225760
    9 H                    1.0000     1.54254309    -2.02695687     0.00042798

      Atomic Mass 
      ----------- 

      C                 12.000000
      Cl                34.968850
      H                  1.007825


 Effective nuclear repulsion energy (a.u.)     146.1566101485

            Nuclear Dipole moment (a.u.) 
            ----------------------------
        X                 Y               Z
 ---------------- ---------------- ----------------
    -1.3426336919    -0.5122915643     0.0381126619


                                 NWChem DFT Module
                                 -----------------


                               Molecule conformer 0




 Summary of "ao basis" -> "ao basis" (spherical)
 ------------------------------------------------------------------------------
       Tag                 Description            Shells   Functions and Types
 ---------------- ------------------------------  ------  ---------------------
 C                           6-311G                  7       13   4s3p
 Cl                          6-311G                 11       21   6s5p
 H                           6-311G                  3        3   3s


  Caching 1-el integrals 

            General Information
            -------------------
          SCF calculation type: DFT
          Wavefunction type:  closed shell.
          No. of atoms     :     9
          No. of electrons :    40
           Alpha electrons :    20
            Beta electrons :    20
          Charge           :     0
          Spin multiplicity:     1
          Use of symmetry is: off; symmetry adaption is: off
          Maximum number of iterations: ***
          This is a Direct SCF calculation.
          AO basis - number of functions:    75
                     number of shells:    47
          Convergence on energy requested:  1.00D-06
          Convergence on density requested:  1.00D-05
          Convergence on gradient requested:  5.00D-04

              XC Information
              --------------
                         B3LYP Method XC Potential
                     Hartree-Fock (Exact) Exchange  0.200          
                        Slater Exchange Functional  0.800 local    
                    Becke 1988 Exchange Functional  0.720 non-local
              Lee-Yang-Parr Correlation Functional  0.810          
                  VWN I RPA Correlation Functional  0.190 local    

             Grid Information
             ----------------
          Grid used for XC integration:  fine      
          Radial quadrature: Mura-Knowles        
          Angular quadrature: Lebedev. 
          Tag              B.-S. Rad. Rad. Pts. Rad. Cut. Ang. Pts.
          ---              ---------- --------- --------- ---------
          C                   0.70       70          11.0       590
          Cl                  1.00      123          11.0       770
          H                   0.35       60          12.0       590
          Grid pruning is: on 
          Number of quadrature shells:   633
          Spatial weights used:  Erf1

          Convergence Information
          -----------------------
          Convergence aids based upon iterative change in 
          total energy or number of iterations. 
          Levelshifting, if invoked, occurs when the 
          HOMO/LUMO gap drops below (HL_TOL):  1.00D-02
          DIIS, if invoked, will attempt to extrapolate 
          using up to (NFOCK): 10 stored Fock matrices.

                    Damping( 0%)  Levelshifting(0.5)       DIIS
                  --------------- ------------------- ---------------
          dE  on:    start            ASAP                start   
          dE off:    2 iters        *** iters           *** iters 


      Screening Tolerance Information
      -------------------------------
          Density screening/tol_rho:  1.00D-10
          AO Gaussian exp screening on grid/accAOfunc:  14
          CD Gaussian exp screening on grid/accCDfunc:  20
          XC Gaussian exp screening on grid/accXCfunc:  20
          Schwarz screening/accCoul:  1.00D-08

          Performing ZORA calculations
          ----------------------------


      Superposition of Atomic Density Guess
      -------------------------------------

 Sum of atomic energies:        -574.98156165

 Read atomic ZORA corrections from ./CC(=C)Cl_mol_9_conformer_0.zora_sf

 Forcing recalculation of ZORA corrections
       Generating atomic ZORA corrections
       ----------------------------------

 In dft_scf:: zora:Knucl= F

 Grid_pts file          = ./CC(=C)Cl_mol_9_conformer_0.gridpts.00
 Record size in doubles =  12289        No. of grid_pts per rec  =   3070
 Max. records in memory =      6        Max. recs in file   =     13466


 Wrote atomic ZORA corrections to ./CC(=C)Cl_mol_9_conformer_0.zora_sf


 Loading old vectors from job with title :

Molecule conformer 0

   Time after variat. SCF:    114.2
   Time prior to 1st pass:    114.2

           Memory utilization after 1st SCF pass: 
           Heap Space remaining (MW):      130.99           130994146
          Stack Space remaining (MW):      131.06           131060060

   convergence    iter        energy       DeltaE   RMS-Dens  Diis-err    time
 ---------------- ----- ----------------- --------- --------- ---------  ------
 d= 0,ls=0.0,diis     1   -579.7443602628 -7.26D+02  3.60D-04  3.15D-04   116.6
 d= 0,ls=0.0,diis     2   -579.7444197524 -5.95D-05  9.68D-05  1.55D-05   119.1
 d= 0,ls=0.0,diis     3   -579.7444169890  2.76D-06  5.34D-05  3.83D-05   122.0
 d= 0,ls=0.0,diis     4   -579.7444218839 -4.89D-06  8.96D-06  6.36D-07   124.5
 d= 0,ls=0.0,diis     5   -579.7444219587 -7.49D-08  2.21D-06  1.00D-07   126.9
(nogshift,skip_gshiftAOev,done_Fji)=( 1,F,F)


         Total DFT energy =     -579.744421958741
      One electron energy =    -1084.590088548748
           Coulomb energy =      405.171885156066
    Exchange-Corr. energy =      -46.482828714592
 Nuclear repulsion energy =      146.156610148534

       Scaling correction =        0.810092439079

 Numeric. integr. density =       39.999997577109

     Total iterative time =     12.9s



 center of mass
 --------------
 x =  -0.02255520 y =   0.18464286 z =   0.00071004

 moments of inertia (a.u.)
 ------------------
         386.544136446664          11.883143909496           0.084719347921
          11.883143909496         197.069253348091           0.046284491596
           0.084719347921           0.046284491596         572.496333345216

            General Information
            -------------------
          SCF calculation type: DFT
          Wavefunction type:  closed shell.
          No. of atoms     :     9
          No. of electrons :    40
           Alpha electrons :    20
            Beta electrons :    20
          Charge           :     0
          Spin multiplicity:     1
          Use of symmetry is: off; symmetry adaption is: off
          Maximum number of iterations: ***
          This is a Direct SCF calculation.
          AO basis - number of functions:    75
                     number of shells:    47
          Convergence on energy requested:  1.00D-06
          Convergence on density requested:  1.00D-05
          Convergence on gradient requested:  5.00D-04

              XC Information
              --------------
                         B3LYP Method XC Potential
                     Hartree-Fock (Exact) Exchange  0.200          
                        Slater Exchange Functional  0.800 local    
                    Becke 1988 Exchange Functional  0.720 non-local
              Lee-Yang-Parr Correlation Functional  0.810          
                  VWN I RPA Correlation Functional  0.190 local    

             Grid Information
             ----------------
          Grid used for XC integration:  fine      
          Radial quadrature: Mura-Knowles        
          Angular quadrature: Lebedev. 
          Tag              B.-S. Rad. Rad. Pts. Rad. Cut. Ang. Pts.
          ---              ---------- --------- --------- ---------
          C                   0.70       70          11.0       590
          Cl                  1.00      123          11.0       770
          H                   0.35       60          12.0       590
          Grid pruning is: on 
          Number of quadrature shells:   633
          Spatial weights used:  Erf1

          Convergence Information
          -----------------------
          Convergence aids based upon iterative change in 
          total energy or number of iterations. 
          Levelshifting, if invoked, occurs when the 
          HOMO/LUMO gap drops below (HL_TOL):  1.00D-02
          DIIS, if invoked, will attempt to extrapolate 
          using up to (NFOCK): 10 stored Fock matrices.

                    Damping( 0%)  Levelshifting(0.5)       DIIS
                  --------------- ------------------- ---------------
          dE  on:    start            ASAP                start   
          dE off:    2 iters        *** iters           *** iters 


      Screening Tolerance Information
      -------------------------------
          Density screening/tol_rho:  1.00D-10
          AO Gaussian exp screening on grid/accAOfunc:  14
          CD Gaussian exp screening on grid/accCDfunc:  20
          XC Gaussian exp screening on grid/accXCfunc:  20
          Schwarz screening/accCoul:  1.00D-08



                            NWChem DFT Gradient Module
                            --------------------------


                               Molecule conformer 0



  charge          =   0.00
  wavefunction    = closed shell



                         DFT ENERGY GRADIENTS

    atom               coordinates                        gradient
                 x          y          z           x          y          z
   1 C      -2.164898  -2.384917   0.003292   -0.000893   0.000453   0.000150
   2 C       0.255680  -0.932858  -0.004681    0.004899   0.001544  -0.000359
   3 C       2.593025  -1.809018   0.001383   -0.004544   0.001253   0.000290
   4 Cl     -0.248487   2.526975   0.000874   -0.000089  -0.001894  -0.000039
   5 H      -1.765565  -4.408375  -0.080530    0.000518  -0.001040  -0.000184
   6 H      -3.256955  -1.999019   1.708224    0.000276   0.000021  -0.000513
   7 H      -3.342516  -1.878859  -1.609483    0.000240   0.000142   0.000670
   8 H       4.228857  -0.593464   0.004266   -0.000296  -0.000110  -0.000033
   9 H       2.914984  -3.830393   0.000809   -0.000112  -0.000369   0.000017

                 ----------------------------------------
                 |  Time  |  1-e(secs)   |  2-e(secs)   |
                 ----------------------------------------
                 |  CPU   |       0.00   |       0.11   |
                 ----------------------------------------
                 |  WALL  |       0.00   |       0.11   |
                 ----------------------------------------
  no constraints, skipping    0.0000000000000000     

  Step       Energy      Delta E   Gmax     Grms     Xrms     Xmax   Walltime
  ---- ---------------- -------- -------- -------- -------- -------- --------
@    2    -579.74442196 -7.6D-04  0.00491  0.00102  0.01551  0.03945    130.6
                                                                    



                                Z-matrix (autoz)
                                -------- 

 Units are Angstrom for bonds and degrees for angles

      Type          Name      I     J     K     L     M      Value     Gradient
      ----------- --------  ----- ----- ----- ----- ----- ---------- ----------
    1 Stretch                  1     2                       1.49372    0.00010
    2 Stretch                  1     5                       1.09232    0.00113
    3 Stretch                  1     6                       1.09071   -0.00057
    4 Stretch                  1     7                       1.09015   -0.00063
    5 Stretch                  2     3                       1.32092   -0.00491
    6 Stretch                  2     4                       1.85020   -0.00186
    7 Stretch                  3     8                       1.07847   -0.00030
    8 Stretch                  3     9                       1.08315    0.00035
    9 Bend                     1     2     3               128.49178   -0.00073
   10 Bend                     1     2     4               112.66756    0.00003
   11 Bend                     2     1     5               109.77072   -0.00019
   12 Bend                     2     1     6               111.12312   -0.00001
   13 Bend                     2     1     7               111.19976   -0.00002
   14 Bend                     2     3     8               122.83614   -0.00000
   15 Bend                     2     3     9               119.59839   -0.00009
   16 Bend                     3     2     4               118.83905    0.00070
   17 Bend                     5     1     6               108.64002    0.00014
   18 Bend                     5     1     7               108.63869    0.00014
   19 Bend                     6     1     7               107.38018   -0.00006
   20 Bend                     8     3     9               117.56542    0.00009
   21 Torsion                  1     2     3     8        -179.67588    0.00001
   22 Torsion                  1     2     3     9           0.41500    0.00001
   23 Torsion                  3     2     1     5          -2.83794   -0.00009
   24 Torsion                  3     2     1     6         117.35886   -0.00003
   25 Torsion                  3     2     1     7        -123.08224   -0.00012
   26 Torsion                  4     2     1     5         177.63483   -0.00005
   27 Torsion                  4     2     1     6         -62.16837    0.00000
   28 Torsion                  4     2     1     7          57.39053   -0.00009
   29 Torsion                  4     2     3     8          -0.17390   -0.00004
   30 Torsion                  4     2     3     9         179.91698   -0.00003

  no constraints, skipping    0.0000000000000000     
  no constraints, skipping    0.0000000000000000     
  no constraints, skipping    0.0000000000000000     
  no constraints, skipping    0.0000000000000000     
  no constraints, skipping    0.0000000000000000     
  no constraints, skipping    0.0000000000000000     
  no constraints, skipping    0.0000000000000000     
  no constraints, skipping    0.0000000000000000     

                                 NWChem DFT Module
                                 -----------------


                               Molecule conformer 0




 Summary of "ao basis" -> "ao basis" (spherical)
 ------------------------------------------------------------------------------
       Tag                 Description            Shells   Functions and Types
 ---------------- ------------------------------  ------  ---------------------
 C                           6-311G                  7       13   4s3p
 Cl                          6-311G                 11       21   6s5p
 H                           6-311G                  3        3   3s


  Caching 1-el integrals 

            General Information
            -------------------
          SCF calculation type: DFT
          Wavefunction type:  closed shell.
          No. of atoms     :     9
          No. of electrons :    40
           Alpha electrons :    20
            Beta electrons :    20
          Charge           :     0
          Spin multiplicity:     1
          Use of symmetry is: off; symmetry adaption is: off
          Maximum number of iterations: ***
          This is a Direct SCF calculation.
          AO basis - number of functions:    75
                     number of shells:    47
          Convergence on energy requested:  1.00D-06
          Convergence on density requested:  1.00D-05
          Convergence on gradient requested:  5.00D-04

              XC Information
              --------------
                         B3LYP Method XC Potential
                     Hartree-Fock (Exact) Exchange  0.200          
                        Slater Exchange Functional  0.800 local    
                    Becke 1988 Exchange Functional  0.720 non-local
              Lee-Yang-Parr Correlation Functional  0.810          
                  VWN I RPA Correlation Functional  0.190 local    

             Grid Information
             ----------------
          Grid used for XC integration:  fine      
          Radial quadrature: Mura-Knowles        
          Angular quadrature: Lebedev. 
          Tag              B.-S. Rad. Rad. Pts. Rad. Cut. Ang. Pts.
          ---              ---------- --------- --------- ---------
          C                   0.70       70          11.0       590
          Cl                  1.00      123          11.0       770
          H                   0.35       60          12.0       590
          Grid pruning is: on 
          Number of quadrature shells:   633
          Spatial weights used:  Erf1

          Convergence Information
          -----------------------
          Convergence aids based upon iterative change in 
          total energy or number of iterations. 
          Levelshifting, if invoked, occurs when the 
          HOMO/LUMO gap drops below (HL_TOL):  1.00D-02
          DIIS, if invoked, will attempt to extrapolate 
          using up to (NFOCK): 10 stored Fock matrices.

                    Damping( 0%)  Levelshifting(0.5)       DIIS
                  --------------- ------------------- ---------------
          dE  on:    start            ASAP                start   
          dE off:    2 iters        *** iters           *** iters 


      Screening Tolerance Information
[...]
(dia2,par1)(k,t,iat1,spin)=(  2,  2,  8,  1)=(     3.99654985,     3.99654985,    -0.26518761,    -0.26518761) ppm
(dia2,par1)(k,t,iat1,spin)=(  3,  2,  8,  1)=(    -0.00677405,    -0.00677405,     0.00571233,     0.00571233) ppm
(dia2,par1)(k,t,iat1,spin)=(  1,  3,  8,  1)=(    -0.01277602,    -0.01277602,    -0.00807688,    -0.00807688) ppm
(dia2,par1)(k,t,iat1,spin)=(  2,  3,  8,  1)=(    -0.00728379,    -0.00728379,    -0.00295691,    -0.00295691) ppm
(dia2,par1)(k,t,iat1,spin)=(  3,  3,  8,  1)=(     6.08678179,     6.08678179,    -0.95262364,    -0.95262364) ppm
dia1(k,t,iat1,ispin)=(  1,  1,  9,  1)=(    22.36436152,    22.36436152) ppm
dia1(k,t,iat1,ispin)=(  1,  2,  9,  1)=(    -6.36117599,    -6.36117599) ppm
dia1(k,t,iat1,ispin)=(  1,  3,  9,  1)=(    -0.10637286,    -0.10637286) ppm
dia1(k,t,iat1,ispin)=(  2,  1,  9,  1)=(    -6.54417468,    -6.54417468) ppm
dia1(k,t,iat1,ispin)=(  2,  2,  9,  1)=(    39.65464390,    39.65464390) ppm
dia1(k,t,iat1,ispin)=(  2,  3,  9,  1)=(     0.30069965,     0.30069965) ppm
dia1(k,t,iat1,ispin)=(  3,  1,  9,  1)=(    -0.10826720,    -0.10826720) ppm
dia1(k,t,iat1,ispin)=(  3,  2,  9,  1)=(     0.29939185,     0.29939185) ppm
dia1(k,t,iat1,ispin)=(  3,  3,  9,  1)=(    15.97598042,    15.97598042) ppm
(dia2,par1)(k,t,iat1,spin)=(  1,  1,  9,  1)=(     5.88451525,     5.88451525,     0.22301418,     0.22301418) ppm
(dia2,par1)(k,t,iat1,spin)=(  2,  1,  9,  1)=(     0.89117704,     0.89117704,    -0.11837392,    -0.11837392) ppm
(dia2,par1)(k,t,iat1,spin)=(  3,  1,  9,  1)=(     0.00998242,     0.00998242,     0.00048401,     0.00048401) ppm
(dia2,par1)(k,t,iat1,spin)=(  1,  2,  9,  1)=(     1.44291244,     1.44291244,     0.48225432,     0.48225432) ppm
(dia2,par1)(k,t,iat1,spin)=(  2,  2,  9,  1)=(     0.30430341,     0.30430341,    -0.21136188,    -0.21136188) ppm
(dia2,par1)(k,t,iat1,spin)=(  3,  2,  9,  1)=(    -0.07089498,    -0.07089498,    -0.01035374,    -0.01035374) ppm
(dia2,par1)(k,t,iat1,spin)=(  1,  3,  9,  1)=(     0.01720115,     0.01720115,     0.00200387,     0.00200387) ppm
(dia2,par1)(k,t,iat1,spin)=(  2,  3,  9,  1)=(    -0.06775524,    -0.06775524,     0.01410811,     0.01410811) ppm
(dia2,par1)(k,t,iat1,spin)=(  3,  3,  9,  1)=(     5.97932793,     5.97932793,     0.49116183,     0.49116183) ppm

 Wrote ZORA NMR data to ./CC(=C)Cl_mol_9_conformer_0.zora_nmrcs

(nogshift,skip_gshiftAOev,done_Fji)=( 1,F,T)


         Total DFT energy =     -579.749755455488
      One electron energy =    -1084.469653425934
           Coulomb energy =      405.060154317549
    Exchange-Corr. energy =      -46.479783985269
 Nuclear repulsion energy =      145.891711615085

             COSMO energy =        0.247816023081

       Scaling correction =        0.810207974771

 Numeric. integr. density =       39.999997372873

     Total iterative time =     70.8s


                                   COSMO solvation results
                                   -----------------------

                 gas phase energy =      -579.744484872097
                 sol phase energy =      -579.749755455488
 (electrostatic) solvation energy =         0.005270583391 (    3.31 kcal/mol)

 center of mass
 --------------
 x =  -0.01997098 y =   0.18324551 z =   0.02330066

 moments of inertia (a.u.)
 ------------------
         387.517224645103          11.412870984702           1.126992948956
          11.412870984702         198.242474995692          -4.212877750984
           1.126992948956          -4.212877750984         574.506625302259

            Scalar ZORA NMR Shielding
            -------------------------


          -----------------------------------------
          Chemical Shielding Tensors (GIAO, in ppm)
          -----------------------------------------


 Read ZORA NMR data from ./CC(=C)Cl_mol_9_conformer_0.zora_nmrcs

    0 giaofock schwarz done =      92.47%
    0 giaofock schwarz done =      84.18%
                                NWChem CPHF Module
                                ------------------



 solvent parameters
 solvname_short: cdcl3   
 solvname_long:  unknown                            
 dielec:       78.4000
 dielecinf:     1.7769

          ---------------
          -cosmo- solvent
          ---------------
 Cosmo: York-Karplus, doi: 10.1021/jp992097l
 dielectric constant -eps-     =  78.40
 screen = (eps-1)/(eps    )    =   0.98724
 surface charge correction     = lagrangian
 -lineq- algorithm             =   0
 -bem- low  level              =   2
 -bem- from -octahedral-
 gaussian surface charge width =   0.98000
 degree of switching           =   1.00000
 switching function tolerance  =   0.00010
 atomic radii = 
 --------------
    1  6.000  2.000
    2  6.000  2.000
    3  6.000  2.000
    4 17.000  2.050
    5  1.000  1.300
    6  1.000  1.300
    7  1.000  1.300
    8  1.000  1.300
    9  1.000  1.300

 solvent accessible surface
 --------------------------

 ---------- ATOMIC COORDINATES (A.U.) ------------ VDWR(ANG.) --
     1   -2.17151725   -2.38639153    0.00625795     2.000
     2    0.25295670   -0.94677797    0.01030514     2.000
     3    2.60239494   -1.81068538   -0.01305043     2.000
     4   -0.24271224    2.52937009    0.05029533     2.050
     5   -1.78478236   -4.41089862   -0.01912789     1.300
     6   -3.29666345   -1.95572062    1.68011898     1.300
     7   -3.31375702   -1.91714510   -1.64549240     1.300
     8    4.22970216   -0.58284876   -0.00779068     1.300
     9    2.93850352   -3.82882963   -0.03736191     1.300
 number of segments per atom =         32
 number of   points per atom =         32
 atom (   nspa,  nppa )
 ----------------------
    1 (     18,     0 )       0
    2 (     10,     0 )       0
    3 (     20,     0 )       0
    4 (     26,     0 )       0
    5 (     16,     0 )       0
    6 (     15,     0 )       0
    7 (     15,     0 )       0
    8 (     14,     0 )       0
    9 (     15,     0 )       0
 number of -cosmo- surface points =      149
 molecular surface =    114.886 angstrom**2
 molecular volume  =     70.083 angstrom**3
 G(cav/disp)       =      1.434 kcal/mol
 ...... end of -cosmo- initialization ......


  scftype          =     RHF 
  nclosed          =       20
  nopen            =        0
  variables        =     1100
  # of vectors     =        3
  tolerance        = 0.10D-03
  level shift      = 0.00D+00
  max iterations   =       50
  max subspace     =       30

 SCF residual:    1.4262628447148443E-005


Iterative solution of linear equations
  No. of variables     1100
  No. of equations        3
  Maximum subspace       30
        Iterations       50
       Convergence  1.0D-04
        Start time   1252.2


   iter   nsub   residual    time
   ----  ------  --------  ---------
     1      3    4.64D-01    1255.5
     2      6    1.99D-02    1258.1
     3      9    1.52D-03    1260.6
     4     12    5.74D-05    1263.1

 Wrote CPHF data to ./CC(=C)Cl_mol_9_conformer_0.shieldcphf

 Calc. par tensor-> zora
      Atom:    1  H 
        Diamagnetic
     27.0188      1.2058     -0.0113
      1.2058     39.8930      0.1955
     -0.0113      0.1955     22.3909

        Paramagnetic
      2.4048     -0.0190      0.0076
     -0.0190     -3.8980     -0.0882
      0.0076     -0.0882      3.7367

        Total Shielding Tensor
     29.4236      1.1868     -0.0037
      1.1868     35.9950      0.1073
     -0.0037      0.1073     26.1276

           isotropic =      30.5154
          anisotropy =       8.5327

          Principal Components and Axis System
                 1           2           3
               36.2038     29.2160     26.1263

      1         0.1724      0.9850      0.0053
      2         0.9850     -0.1723     -0.0115
      3         0.0104     -0.0072      0.9999



      Atom:    2  H 
        Diamagnetic
     31.4912      1.4715     -7.6168
      1.4715     25.3940      0.6585
     -7.6168      0.6585     30.8434

        Paramagnetic
      0.6597     -0.0004      3.8084
     -0.0004      3.5197     -0.5441
      3.8084     -0.5441     -0.3557

        Total Shielding Tensor
     32.1509      1.4711     -3.8084
      1.4711     28.9137      0.1144
     -3.8084      0.1144     30.4877

           isotropic =      30.5174
          anisotropy =       7.3222

          Principal Components and Axis System
                 1           2           3
               35.3989     29.2726     26.8808

      1         0.7811      0.1751      0.5994
      2         0.1666      0.8667     -0.4702
      3        -0.6018      0.4671      0.6478



      Atom:    3  H 
        Diamagnetic
     31.6484      1.2901      7.6373
      1.2901     25.4289     -0.7975
      7.6373     -0.7975     30.6469

        Paramagnetic
      0.5805      0.0940     -3.8142
      0.0940      3.4925      0.6311
     -3.8142      0.6311     -0.2461

        Total Shielding Tensor
     32.2289      1.3841      3.8231
      1.3841     28.9214     -0.1663
      3.8231     -0.1663     30.4008

           isotropic =      30.5170
          anisotropy =       7.3212

          Principal Components and Axis System
                 1           2           3
               35.3979     29.2755     26.8778

      1         0.7873      0.1704     -0.5925
      2         0.1529      0.8771      0.4554
      3         0.5973     -0.4491      0.6645



      Atom:    4  H 
        Diamagnetic
     38.6537      4.8212     -0.0391
      4.8212     28.9370      0.0607
     -0.0391      0.0607     21.2407

        Paramagnetic
     -7.0354     -6.8031     -0.0135
     -6.8031     -4.1066     -0.0625
     -0.0135     -0.0625      4.6823

        Total Shielding Tensor
     31.6183     -1.9819     -0.0525
     -1.9819     24.8303     -0.0018
     -0.0525     -0.0018     25.9230

           isotropic =      27.4572
          anisotropy =       7.0467

          Principal Components and Axis System
                 1           2           3
               32.1550     25.9228     24.2939

      1         0.9653      0.0053      0.2612
      2        -0.2612     -0.0113      0.9652
      3        -0.0081      0.9999      0.0095



      Atom:    5  H 
        Diamagnetic
     28.2489     -5.2856     -0.0937
     -5.2856     39.9589      0.2307
     -0.0937      0.2307     21.9553

        Paramagnetic
      1.0556      2.6074      0.0447
      2.6074    -13.9837     -0.2152
      0.0447     -0.2152      3.9547

        Total Shielding Tensor
     29.3044     -2.6783     -0.0491
     -2.6783     25.9752      0.0155
     -0.0491      0.0155     25.9100

           isotropic =      27.0632
          anisotropy =       5.5958

          Principal Components and Axis System
                 1           2           3
               30.7938     25.9095     24.4864

      1         0.8740      0.0055      0.4859
      2        -0.4858     -0.0113      0.8740
      3        -0.0103      0.9999      0.0072




 Task  times  cpu:       99.7s     wall:       95.2s


                                NWChem Input Module
                                -------------------


 Summary of allocated global arrays
-----------------------------------
  array 0 => double precision sf 1(75,75),  handle: -987 
  array 1 => double precision sf 1(75,75),  handle: -986 
  array 2 => double precision sf 1(75,75),  handle: -985 
  array 3 => double precision sf 1(75,75),  handle: -984 
  array 4 => double precision sf 1(75,75),  handle: -983 
  array 5 => double precision sf 1(75,75),  handle: -982 
  array 6 => double precision sf 1(75,75),  handle: -981 
  array 7 => double precision sf 1(75,75),  handle: -980 
  array 8 => double precision sf 1(75,75),  handle: -979 
  array 9 => double precision sf 1(75,75),  handle: -978 
  array 10 => double precision sf 1(75,75),  handle: -977 
  array 11 => double precision sf 1(75,75),  handle: -976 
  array 12 => double precision sf 1(75,75),  handle: -975 
  array 13 => double precision sf 1(75,75),  handle: -974 
  array 14 => double precision sf 1(75,75),  handle: -973 
  array 15 => double precision sf 1(75,75),  handle: -972 
  array 16 => double precision sf 1(75,75),  handle: -971 
  array 17 => double precision sf 1(75,75),  handle: -970 
  array 18 => double precision sf 1(75,75),  handle: -969 
  array 19 => double precision sf 1(75,75),  handle: -968 
  array 20 => double precision sf 1(75,75),  handle: -967 
  array 21 => double precision sf 1(75,75),  handle: -966 
  array 22 => double precision sf 1(75,75),  handle: -965 
  array 23 => double precision sf 1(75,75),  handle: -964 
  array 24 => double precision sf 1(75,75),  handle: -963 
  array 25 => double precision sf 1(75,75),  handle: -962 
  array 26 => double precision sf 1(75,75),  handle: -961 
  array 27 => double precision sf 1(75,75),  handle: -960 
  array 28 => double precision sf 1(75,75),  handle: -959 
  array 29 => double precision sf 1(75,75),  handle: -958 
  array 30 => double precision sf 1(75,75),  handle: -957 
  array 31 => double precision sf 1(75,75),  handle: -956 
  array 32 => double precision sf 1(75,75),  handle: -955 
  array 33 => double precision sf 1(75,75),  handle: -954 
  array 34 => double precision sf 1(75,75),  handle: -953 
  array 35 => double precision sf 1(75,75),  handle: -952 
  array 36 => double precision sf 1(75,75),  handle: -951 
  array 37 => double precision sf 1(75,75),  handle: -950 
  array 38 => double precision sf 1(75,75),  handle: -949 
  array 39 => double precision sf 1(75,75),  handle: -948 
  array 40 => double precision sf 1(75,75),  handle: -947 
  array 41 => double precision sf 1(75,75),  handle: -946 
  array 42 => double precision sf 1(75,75),  handle: -945 
  array 43 => double precision sf 1(75,75),  handle: -944 
  array 44 => double precision sf 1(75,75),  handle: -943 
  array 45 => double precision sf 1(75,75),  handle: -942 
  array 46 => double precision sf 1(75,75),  handle: -941 
  array 47 => double precision sf 1(75,75),  handle: -940 
  array 48 => double precision sf 1(75,75),  handle: -939 
  array 49 => double precision sf 1(75,75),  handle: -938 
  array 50 => double precision sf 1(75,75),  handle: -937 
  array 51 => double precision sf 1(75,75),  handle: -936 
  array 52 => double precision sf 1(75,75),  handle: -935 
  array 53 => double precision sf 1(75,75),  handle: -934 
  array 54 => double precision sf 1(75,75),  handle: -933 
  array 55 => double precision sf 1(75,75),  handle: -932 
  array 56 => double precision sf 1(75,75),  handle: -931 
  array 57 => double precision sf 1(75,75),  handle: -930 
  array 58 => double precision sf 1(75,75),  handle: -929 
  array 59 => double precision sf 1(75,75),  handle: -928 
  array 60 => double precision sf 1(75,75),  handle: -927 
  array 61 => double precision sf 1(75,75),  handle: -926 
  array 62 => double precision sf 1(75,75),  handle: -925 
  array 63 => double precision sf 1(75,75),  handle: -924 
  array 64 => double precision sf 1(75,75),  handle: -923 
  array 65 => double precision sf 1(75,75),  handle: -922 
  array 66 => double precision sf 1(75,75),  handle: -921 
  array 67 => double precision sf 1(75,75),  handle: -920 
  array 68 => double precision sf 1(75,75),  handle: -919 



                         GA Statistics for process    0
                         ------------------------------

       create   destroy   get      put      acc     scatter   gather  read&inc
calls: 9341     8927     3.51e+05 6.30e+04 7.98e+04   60        0     1.14e+04 
number of processes/call 0.00e+00 0.00e+00 0.00e+00 0.00e+00 0.00e+00
bytes total:             4.51e+08 6.46e+07 3.89e+08 4.48e+02 0.00e+00 9.11e+04
bytes remote:            3.99e+08 5.54e+07 3.58e+08 -2.24e+02 0.00e+00 0.00e+00
Max memory consumed for GA by this process: 676656 bytes

MA_summarize_allocated_blocks: starting scan ...
MA_summarize_allocated_blocks: scan completed: 0 heap blocks, 0 stack blocks
MA usage statistics:

	allocation statistics:
					      heap	     stack
					      ----	     -----
	current number of blocks	         0	         0
	maximum number of blocks	        65	        57
	current total bytes		         0	         0
	maximum total bytes		   2301048	  24872728
	maximum total K-bytes		      2302	     24873
	maximum total M-bytes		         3	        25


                                     CITATION
                                     --------
                Please cite the following reference when publishing
                           results obtained with NWChem:

          E. Apr, E. J. Bylaska, W. A. de Jong, N. Govind, K. Kowalski,
       T. P. Straatsma, M. Valiev, H. J. J. van Dam, Y. Alexeev, J. Anchell,
       V. Anisimov, F. W. Aquino, R. Atta-Fynn, J. Autschbach, N. P. Bauman,
     J. C. Becca, D. E. Bernholdt, K. Bhaskaran-Nair, S. Bogatko, P. Borowski,
        J. Boschen, J. Brabec, A. Bruner, E. Caut, Y. Chen, G. N. Chuev,
      C. J. Cramer, J. Daily, M. J. O. Deegan, T. H. Dunning Jr., M. Dupuis,
   K. G. Dyall, G. I. Fann, S. A. Fischer, A. Fonari, H. Frchtl, L. Gagliardi,
      J. Garza, N. Gawande, S. Ghosh, K. Glaesemann, A. W. Gtz, J. Hammond,
       V. Helms, E. D. Hermes, K. Hirao, S. Hirata, M. Jacquelin, L. Jensen,
   B. G. Johnson, H. Jnsson, R. A. Kendall, M. Klemm, R. Kobayashi, V. Konkov,
      S. Krishnamoorthy, M. Krishnan, Z. Lin, R. D. Lins, R. J. Littlefield,
      A. J. Logsdail, K. Lopata, W. Ma, A. V. Marenich, J. Martin del Campo,
   D. Mejia-Rodriguez, J. E. Moore, J. M. Mullin, T. Nakajima, D. R. Nascimento,
    J. A. Nichols, P. J. Nichols, J. Nieplocha, A. Otero-de-la-Roza, B. Palmer,
    A. Panyala, T. Pirojsirikul, B. Peng, R. Peverati, J. Pittner, L. Pollack,
   R. M. Richard, P. Sadayappan, G. C. Schatz, W. A. Shelton, D. W. Silverstein,
   D. M. A. Smith, T. A. Soares, D. Song, M. Swart, H. L. Taylor, G. S. Thomas,
            V. Tipparaju, D. G. Truhlar, K. Tsemekhman, T. Van Voorhis,
     . Vzquez-Mayagoitia, P. Verma, O. Villa, A. Vishnu, K. D. Vogiatzis,
        D. Wang, J. H. Weare, M. J. Williamson, T. L. Windus, K. Woliski,
        A. T. Wong, Q. Wu, C. Yang, Q. Yu, M. Zacharias, Z. Zhang, Y. Zhao,
                                and R. J. Harrison
                        "NWChem: Past, present, and future
                         J. Chem. Phys. 152, 184102 (2020)
                               doi:10.1063/5.0004997

                                      AUTHORS
                                      -------
     E. Apra, E. J. Bylaska, N. Govind, K. Kowalski, M. Valiev, W. A. de Jong,
      T. P. Straatsma, H. J. J. van Dam, D. Wang, T. L. Windus, N. P. Bauman,
       A. Panyala, J. Hammond, J. Autschbach, K. Bhaskaran-Nair, J. Brabec,
    K. Lopata, S. A. Fischer, S. Krishnamoorthy, M. Jacquelin, W. Ma, M. Klemm,
       O. Villa, Y. Chen, V. Anisimov, F. Aquino, S. Hirata, M. T. Hackler,
           Eric Hermes, L. Jensen, J. E. Moore, J. C. Becca, V. Konjkov,
            D. Mejia-Rodriguez, T. Risthaus, M. Malagoli, A. Marenich,
   A. Otero-de-la-Roza, J. Mullin, P. Nichols, R. Peverati, J. Pittner, Y. Zhao,
        P.-D. Fan, A. Fonari, M. J. Williamson, R. J. Harrison, J. R. Rehr,
      M. Dupuis, D. Silverstein, D. M. A. Smith, J. Nieplocha, V. Tipparaju,
      M. Krishnan, B. E. Van Kuiken, A. Vazquez-Mayagoitia, M. Swart, Q. Wu,
   T. Van Voorhis, A. A. Auer, M. Nooijen, L. D. Crosby, E. Brown, G. Cisneros,
     G. I. Fann, H. Fruchtl, J. Garza, K. Hirao, R. A. Kendall, J. A. Nichols,
       K. Tsemekhman, K. Wolinski, J. Anchell, D. E. Bernholdt, P. Borowski,
       T. Clark, D. Clerc, H. Dachsel, M. J. O. Deegan, K. Dyall, D. Elwood,
      E. Glendening, M. Gutowski, A. C. Hess, J. Jaffe, B. G. Johnson, J. Ju,
        R. Kobayashi, R. Kutteh, Z. Lin, R. Littlefield, X. Long, B. Meng,
      T. Nakajima, S. Niu, L. Pollack, M. Rosing, K. Glaesemann, G. Sandrone,
      M. Stave, H. Taylor, G. Thomas, J. H. van Lenthe, A. T. Wong, Z. Zhang.

 Total times  cpu:     1274.8s     wall:     1263.4s
