 argument  1 = CC(=C)Cl_mol_3_conformer_0.nw



============================== echo of input deck ==============================
start

title "Molecule conformer 0"

memory total 4000 mb

echo
geometry units angstroms
   C     -0.8766    -0.6330    -0.5701
   C     -0.0317     0.4051     0.1053
   C      1.2918     0.4304    -0.0769
   Cl    -0.7889     1.6023     1.1486
   H     -1.9449    -0.4962    -0.3012
   H     -0.7734    -0.5453    -1.6723
   H     -0.5564    -1.6472    -0.2504
   H      1.7793    -0.2992    -0.7167
   H      1.9008     1.1832     0.4134
end


basis spherical
* library 6-311G
end

driver
  maxiter 500
  xyz final
end

relativistic
  zora on
  zora:cutoff_NMR 1d-8
  zora:cutoff 1d-30
end

dft
  direct
  grid fine
  xc B3LYP
  mult 1
  maxiter 1500
  noprint "final vectors analysis" multipole
end

task dft optimize

task dft freq

property
  shielding 5 5 6 7 8 9
end

cosmo
   solvent cdcl3
end

task dft property
================================================================================


                                         
                                         


             Northwest Computational Chemistry Package (NWChem) 7.0.2
             --------------------------------------------------------


                    Environmental Molecular Sciences Laboratory
                       Pacific Northwest National Laboratory
                                Richland, WA 99352

                              Copyright (c) 1994-2020
                       Pacific Northwest National Laboratory
                            Battelle Memorial Institute

             NWChem is an open-source computational chemistry package
                        distributed under the terms of the
                      Educational Community License (ECL) 2.0
             A copy of the license is included with this distribution
                              in the LICENSE.TXT file

                                  ACKNOWLEDGMENT
                                  --------------

            This software and its documentation were developed at the
            EMSL at Pacific Northwest National Laboratory, a multiprogram
            national laboratory, operated for the U.S. Department of Energy
            by Battelle under Contract Number DE-AC05-76RL01830. Support
            for this work was provided by the Department of Energy Office
            of Biological and Environmental Research, Office of Basic
            Energy Sciences, and the Office of Advanced Scientific Computing.


           Job information
           ---------------

    hostname        = ponder
    program         = nwchem
    date            = Tue Aug  6 11:55:03 2024

    compiled        = Sat_Apr_09_17:12:10_2022
    source          = /build/nwchem-f1f4gx/nwchem-7.0.2/build-openmpi
    nwchem branch   = 7.0.2
    nwchem revision = N/A
    ga revision     = 5.8.1
    use scalapack   = T
    input           = CC(=C)Cl_mol_3_conformer_0.nw
    prefix          = CC(=C)Cl_mol_3_conformer_0.
    data base       = ./CC(=C)Cl_mol_3_conformer_0.db
    status          = startup
    nproc           =       40
    time left       =     -1s



           Memory information
           ------------------

    heap     =  131072000 doubles =   1000.0 Mbytes
    stack    =  131071997 doubles =   1000.0 Mbytes
    global   =  262144000 doubles =   2000.0 Mbytes (distinct from heap & stack)
    total    =  524287997 doubles =   4000.0 Mbytes
    verify   = yes
    hardfail = no 


           Directory information
           ---------------------

  0 permanent = .
  0 scratch   = .




                                NWChem Input Module
                                -------------------


                               Molecule conformer 0
                               --------------------

 Scaling coordinates for geometry "geometry" by  1.889725989
 (inverse scale =  0.529177249)

 CS  symmetry detected

          ------
          auto-z
          ------
  no constraints, skipping    0.0000000000000000     
  no constraints, skipping    0.0000000000000000     


                             Geometry "geometry" -> ""
                             -------------------------

 Output coordinates in angstroms (scale by  1.889725989 to convert to a.u.)

  No.       Tag          Charge          X              Y              Z
 ---- ---------------- ---------- -------------- -------------- --------------
    1 C                    6.0000    -1.11607208     1.28386732     0.00000000
    2 C                    6.0000     0.10373252     0.41223121     0.00000000
    3 C                    6.0000     1.32635934     0.95137204     0.00000000
    4 Cl                  17.0000    -0.07485577    -1.33797472     0.00000000
    5 H                    1.0000    -2.03536166     0.66161897     0.00000000
    6 H                    1.0000    -1.12139226     1.92610225     0.90596250
    7 H                    1.0000    -1.12139226     1.92610225    -0.90596250
    8 H                    1.0000     1.45903927     2.02919971     0.00000000
    9 H                    1.0000     2.20753617     0.31772362     0.00000000

      Atomic Mass 
      ----------- 

      C                 12.000000
      Cl                34.968850
      H                  1.007825


 Effective nuclear repulsion energy (a.u.)     147.8092001675

            Nuclear Dipole moment (a.u.) 
            ----------------------------
        X                 Y               Z
 ---------------- ---------------- ----------------
    -0.0000000000    -0.0000000000     0.0000000000

      Symmetry information
      --------------------

 Group name             Cs        
 Group number              2
 Group order               2
 No. of unique centers     8

      Symmetry unique atoms

     1    2    3    4    5    6    8    9



                                Z-matrix (autoz)
                                -------- 

 Units are Angstrom for bonds and degrees for angles

      Type          Name      I     J     K     L     M      Value
      ----------- --------  ----- ----- ----- ----- ----- ----------
    1 Stretch                  1     2                       1.49922
    2 Stretch                  1     5                       1.11008
    3 Stretch                  1     6                       1.11052
    4 Stretch                  1     7                       1.11052
    5 Stretch                  2     3                       1.33622
    6 Stretch                  2     4                       1.75929
    7 Stretch                  3     8                       1.08596
    8 Stretch                  3     9                       1.08535
    9 Bend                     1     2     3               120.65552
   10 Bend                     1     2     4               119.72226
   11 Bend                     2     1     5               110.35826
   12 Bend                     2     1     6               109.88459
   13 Bend                     2     1     7               109.88459
   14 Bend                     2     3     8               120.81377
   15 Bend                     2     3     9               120.48433
   16 Bend                     3     2     4               119.62221
   17 Bend                     5     1     6               108.67524
   18 Bend                     5     1     7               108.67524
   19 Bend                     6     1     7               109.33265
   20 Bend                     8     3     9               118.70189
   21 Torsion                  1     2     3     8           0.00000
   22 Torsion                  1     2     3     9         180.00000
   23 Torsion                  3     2     1     5         180.00000
   24 Torsion                  3     2     1     6         -60.17167
   25 Torsion                  3     2     1     7          60.17167
   26 Torsion                  4     2     1     5           0.00000
   27 Torsion                  4     2     1     6         119.82833
   28 Torsion                  4     2     1     7        -119.82833
   29 Torsion                  4     2     3     8         180.00000
   30 Torsion                  4     2     3     9           0.00000


            XYZ format geometry
            -------------------
     9
 geometry
 C                    -1.11607208     1.28386732     0.00000000
 C                     0.10373252     0.41223121     0.00000000
 C                     1.32635934     0.95137204     0.00000000
 Cl                   -0.07485577    -1.33797472     0.00000000
 H                    -2.03536166     0.66161897     0.00000000
 H                    -1.12139226     1.92610225     0.90596250
 H                    -1.12139226     1.92610225    -0.90596250
 H                     1.45903927     2.02919971     0.00000000
 H                     2.20753617     0.31772362     0.00000000

 ==============================================================================
                                internuclear distances
 ------------------------------------------------------------------------------
       center one      |      center two      | atomic units |  angstroms
 ------------------------------------------------------------------------------
    2 C                |   1 C                |     2.83312  |     1.49922
    3 C                |   2 C                |     2.52509  |     1.33622
    4 Cl               |   2 C                |     3.32458  |     1.75929
    5 H                |   1 C                |     2.09775  |     1.11008
    6 H                |   1 C                |     2.09858  |     1.11052
    7 H                |   1 C                |     2.09858  |     1.11052
    8 H                |   3 C                |     2.05217  |     1.08596
    9 H                |   3 C                |     2.05101  |     1.08535
 ------------------------------------------------------------------------------
                         number of included internuclear distances:          8
 ==============================================================================



 ==============================================================================
                                 internuclear angles
 ------------------------------------------------------------------------------
        center 1       |       center 2       |       center 3       |  degrees
 ------------------------------------------------------------------------------
    2 C                |   1 C                |   5 H                |   110.36
    2 C                |   1 C                |   6 H                |   109.88
    2 C                |   1 C                |   7 H                |   109.88
    5 H                |   1 C                |   6 H                |   108.68
    5 H                |   1 C                |   7 H                |   108.68
    6 H                |   1 C                |   7 H                |   109.33
    1 C                |   2 C                |   3 C                |   120.66
    1 C                |   2 C                |   4 Cl               |   119.72
    3 C                |   2 C                |   4 Cl               |   119.62
    2 C                |   3 C                |   8 H                |   120.81
    2 C                |   3 C                |   9 H                |   120.48
    8 H                |   3 C                |   9 H                |   118.70
 ------------------------------------------------------------------------------
                            number of included internuclear angles:         12
 ==============================================================================





 Summary of "ao basis" -> "" (spherical)
 ------------------------------------------------------------------------------
       Tag                 Description            Shells   Functions and Types
 ---------------- ------------------------------  ------  ---------------------
 *                           6-311G                   on all atoms 




                           NWChem Geometry Optimization
                           ----------------------------




                               Molecule conformer 0


  no constraints, skipping    0.0000000000000000     
 maximum gradient threshold         (gmax) =   0.000450
 rms gradient threshold             (grms) =   0.000300
 maximum cartesian step threshold   (xmax) =   0.001800
 rms cartesian step threshold       (xrms) =   0.001200
 fixed trust radius                (trust) =   0.300000
 maximum step size to saddle      (sadstp) =   0.100000
 energy precision                  (eprec) =   5.0D-06
 maximum number of steps          (nptopt) =  500
 initial hessian option           (inhess) =    0
 line search option               (linopt) =    1
 hessian update option            (modupd) =    1
 saddle point option              (modsad) =    0
 initial eigen-mode to follow     (moddir) =    0
 initial variable to follow       (vardir) =    0
 follow first negative mode     (firstneg) =    T
 apply conjugacy                    (opcg) =    F
 source of zmatrix                         =   autoz   


          -------------------
          Energy Minimization
          -------------------


 Names of Z-matrix variables 
    1              2              3              4              5         
    6              7              8              9             10         
   11             12             13             14             15         
   16             17             18             19             20         
   21             22             23             24             25         
   26             27             28             29             30         

 Variables with the same non-blank name are constrained to be equal


 Using diagonal initial Hessian 
 Scaling for Hessian diagonals: bonds = 1.00  angles = 0.25  torsions = 0.10

          --------
          Step   0
          --------


                         Geometry "geometry" -> "geometry"
                         ---------------------------------

 Output coordinates in angstroms (scale by  1.889725989 to convert to a.u.)

  No.       Tag          Charge          X              Y              Z
 ---- ---------------- ---------- -------------- -------------- --------------
    1 C                    6.0000    -1.11607208     1.28386732     0.00000000
    2 C                    6.0000     0.10373252     0.41223121     0.00000000
    3 C                    6.0000     1.32635934     0.95137204     0.00000000
    4 Cl                  17.0000    -0.07485577    -1.33797472     0.00000000
    5 H                    1.0000    -2.03536166     0.66161897     0.00000000
    6 H                    1.0000    -1.12139226     1.92610225     0.90596250
    7 H                    1.0000    -1.12139226     1.92610225    -0.90596250
    8 H                    1.0000     1.45903927     2.02919971     0.00000000
    9 H                    1.0000     2.20753617     0.31772362     0.00000000

      Atomic Mass 
      ----------- 

      C                 12.000000
      Cl                34.968850
      H                  1.007825


 Effective nuclear repulsion energy (a.u.)     147.8092001675

            Nuclear Dipole moment (a.u.) 
            ----------------------------
        X                 Y               Z
 ---------------- ---------------- ----------------
    -0.0000000000    -0.0000000000     0.0000000000

      Symmetry information
      --------------------

 Group name             Cs        
 Group number              2
 Group order               2
 No. of unique centers     8

      Symmetry unique atoms

     1    2    3    4    5    6    8    9


                                 NWChem DFT Module
                                 -----------------


                               Molecule conformer 0


                      Basis "ao basis" -> "ao basis" (spherical)
                      -----
  C (Carbon)
  ----------
            Exponent  Coefficients 
       -------------- ---------------------------------------------------------
  1 S  4.56324000E+03  0.001967
  1 S  6.82024000E+02  0.015231
  1 S  1.54973000E+02  0.076127
  1 S  4.44553000E+01  0.260801
  1 S  1.30290000E+01  0.616462
  1 S  1.82773000E+00  0.221006

  2 S  2.09642000E+01  0.114660
  2 S  4.80331000E+00  0.919999
  2 S  1.45933000E+00 -0.003031

  3 P  2.09642000E+01  0.040249
  3 P  4.80331000E+00  0.237594
  3 P  1.45933000E+00  0.815854

  4 S  4.83456000E-01  1.000000

  5 P  4.83456000E-01  1.000000

  6 S  1.45585000E-01  1.000000

  7 P  1.45585000E-01  1.000000

  Cl (Chlorine)
  -------------
            Exponent  Coefficients 
       -------------- ---------------------------------------------------------
  1 S  1.05819000E+05  0.000738
  1 S  1.58720000E+04  0.005718
  1 S  3.61965000E+03  0.029495
  1 S  1.03080000E+03  0.117286
  1 S  3.39908000E+02  0.362949
  1 S  1.24538000E+02  0.584149

  2 S  1.24538000E+02  0.134177
  2 S  4.95135000E+01  0.624250
  2 S  2.08056000E+01  0.291756

  3 S  6.58346000E+00  1.000000

  4 S  2.56468000E+00  1.000000

  5 S  5.59763000E-01  1.000000

  6 S  1.83273000E-01  1.000000

  7 P  5.89776000E+02  0.002391
  7 P  1.39849000E+02  0.018504
  7 P  4.51413000E+01  0.081377
  7 P  1.68733000E+01  0.221552
  7 P  6.74110000E+00  0.772569

  8 P  6.74110000E+00 -1.572244
  8 P  2.77152000E+00  0.992389

  9 P  1.02387000E+00  1.000000

 10 P  3.81368000E-01  1.000000

 11 P  1.09437000E-01  1.000000

  H (Hydrogen)
  ------------
            Exponent  Coefficients 
       -------------- ---------------------------------------------------------
  1 S  3.38650000E+01  0.025494
  1 S  5.09479000E+00  0.190373
  1 S  1.15879000E+00  0.852161

  2 S  3.25840000E-01  1.000000

  3 S  1.02741000E-01  1.000000



 Summary of "ao basis" -> "ao basis" (spherical)
 ------------------------------------------------------------------------------
       Tag                 Description            Shells   Functions and Types
 ---------------- ------------------------------  ------  ---------------------
 C                           6-311G                  7       13   4s3p
 Cl                          6-311G                 11       21   6s5p
 H                           6-311G                  3        3   3s




 Summary of "ao basis" -> "ao basis" (spherical)
 ------------------------------------------------------------------------------
       Tag                 Description            Shells   Functions and Types
 ---------------- ------------------------------  ------  ---------------------
 C                           6-311G                  7       13   4s3p
 Cl                          6-311G                 11       21   6s5p
 H                           6-311G                  3        3   3s


      Symmetry analysis of basis
      --------------------------

        a'         58
        a"         17

  Caching 1-el integrals 

            General Information
            -------------------
          SCF calculation type: DFT
          Wavefunction type:  closed shell.
          No. of atoms     :     9
          No. of electrons :    40
           Alpha electrons :    20
            Beta electrons :    20
          Charge           :     0
          Spin multiplicity:     1
          Use of symmetry is: on ; symmetry adaption is: on 
          Maximum number of iterations: ***
          This is a Direct SCF calculation.
          AO basis - number of functions:    75
                     number of shells:    47
          Convergence on energy requested:  1.00D-06
          Convergence on density requested:  1.00D-05
          Convergence on gradient requested:  5.00D-04

              XC Information
              --------------
                         B3LYP Method XC Potential
                     Hartree-Fock (Exact) Exchange  0.200          
                        Slater Exchange Functional  0.800 local    
                    Becke 1988 Exchange Functional  0.720 non-local
              Lee-Yang-Parr Correlation Functional  0.810          
                  VWN I RPA Correlation Functional  0.190 local    

             Grid Information
             ----------------
          Grid used for XC integration:  fine      
          Radial quadrature: Mura-Knowles        
          Angular quadrature: Lebedev. 
          Tag              B.-S. Rad. Rad. Pts. Rad. Cut. Ang. Pts.
          ---              ---------- --------- --------- ---------
          C                   0.70       70          11.0       590
          Cl                  1.00      123          11.0       770
          H                   0.35       60          12.0       590
          Grid pruning is: on 
          Number of quadrature shells:   573
          Spatial weights used:  Erf1

          Convergence Information
          -----------------------
          Convergence aids based upon iterative change in 
          total energy or number of iterations. 
          Levelshifting, if invoked, occurs when the 
          HOMO/LUMO gap drops below (HL_TOL):  1.00D-02
          DIIS, if invoked, will attempt to extrapolate 
          using up to (NFOCK): 10 stored Fock matrices.

                    Damping( 0%)  Levelshifting(0.5)       DIIS
                  --------------- ------------------- ---------------
          dE  on:    start            ASAP                start   
          dE off:    2 iters        *** iters           *** iters 


      Screening Tolerance Information
      -------------------------------
          Density screening/tol_rho:  1.00D-10
          AO Gaussian exp screening on grid/accAOfunc:  14
          CD Gaussian exp screening on grid/accCDfunc:  20
          XC Gaussian exp screening on grid/accXCfunc:  20
          Schwarz screening/accCoul:  1.00D-08

          Performing ZORA calculations
          ----------------------------


      Superposition of Atomic Density Guess
      -------------------------------------

 Sum of atomic energies:        -574.98156165

 Read atomic ZORA corrections from ./CC(=C)Cl_mol_3_conformer_0.zora_sf

 dft_zora_read: failed to open./CC(=C)Cl_mol_3_conformer_0.zora_sf
 Forcing recalculation of ZORA corrections
       Generating atomic ZORA corrections
       ----------------------------------

 In dft_scf:: zora:Knucl= F

 Grid_pts file          = ./CC(=C)Cl_mol_3_conformer_0.gridpts.00
 Record size in doubles =  12289        No. of grid_pts per rec  =   3070
 Max. records in memory =      5        Max. recs in file   =     13507


 Wrote atomic ZORA corrections to ./CC(=C)Cl_mol_3_conformer_0.zora_sf


      Superposition of Atomic Density Guess
      -------------------------------------

 Sum of atomic energies:        -574.98156165

      Non-variational initial energy
      ------------------------------

 Total energy =    -577.070911
 1-e energy   =   -1082.057397
 2-e energy   =     357.177285
 HOMO         =      -0.276806
 LUMO         =       0.026825


      Symmetry analysis of molecular orbitals - initial
      -------------------------------------------------

  Numbering of irreducible representations: 

     1 a'          2 a"      

  Orbital symmetries:

     1 a'          2 a'          3 a'          4 a'          5 a'      
     6 a'          7 a'          8 a"          9 a'         10 a'      
    11 a'         12 a'         13 a'         14 a'         15 a"      
    16 a'         17 a"         18 a'         19 a'         20 a"      
    21 a"         22 a'         23 a'         24 a'         25 a'      
    26 a'         27 a"         28 a'         29 a'         30 a"      

   Time after variat. SCF:      7.2
   Time prior to 1st pass:      7.2

           Memory utilization after 1st SCF pass: 
           Heap Space remaining (MW):      131.01           131006392
          Stack Space remaining (MW):      131.06           131060060

   convergence    iter        energy       DeltaE   RMS-Dens  Diis-err    time
 ---------------- ----- ----------------- --------- --------- ---------  ------
 d= 0,ls=0.0,diis     1   -579.6365760549 -7.27D+02  1.48D-02  3.77D+01     9.1
 d= 0,ls=0.0,diis     2   -579.6387450824 -2.17D-03  2.10D-02  8.01D-01    11.8
 d= 0,ls=0.0,diis     3   -579.4781806953  1.61D-01  1.30D-02  1.80D+00    14.4
 d= 0,ls=0.0,diis     4   -579.7334909091 -2.55D-01  1.49D-03  1.33D-02    17.2
 d= 0,ls=0.0,diis     5   -579.7348906723 -1.40D-03  7.51D-04  3.04D-03    19.6
  Resetting Diis
 d= 0,ls=0.0,diis     6   -579.7352978843 -4.07D-04  9.46D-05  6.32D-05    22.2
 d= 0,ls=0.0,diis     7   -579.7353038189 -5.93D-06  5.21D-05  4.17D-06    24.8
 d= 0,ls=0.0,diis     8   -579.7353035125  3.06D-07  2.59D-05  6.78D-06    27.1
 d= 0,ls=0.0,diis     9   -579.7353043695 -8.57D-07  4.06D-06  2.30D-07    29.1
(nogshift,skip_gshiftAOev,done_Fji)=( 1,F,F)


         Total DFT energy =     -579.735304369525
      One electron energy =    -1087.835675821799
           Coulomb energy =      406.773674714828
    Exchange-Corr. energy =      -46.482503430053
 Nuclear repulsion energy =      147.809200167500

       Scaling correction =        0.810184755887

 Numeric. integr. density =       40.000000523163

     Total iterative time =     22.0s



                  Occupations of the irreducible representations
                  ----------------------------------------------

                     irrep           alpha         beta
                     --------     --------     --------
                     a'               16.0         16.0
                     a"                4.0          4.0


 center of mass
 --------------
 x =   0.01328291 y =  -0.20146737 z =   0.00000000

 moments of inertia (a.u.)
 ------------------
         386.538258679511           0.000000005081           0.000000000000
           0.000000005081         184.982860639723           0.000000000000
           0.000000000000           0.000000000000         559.705316529186

            General Information
            -------------------
          SCF calculation type: DFT
          Wavefunction type:  closed shell.
          No. of atoms     :     9
          No. of electrons :    40
           Alpha electrons :    20
            Beta electrons :    20
          Charge           :     0
          Spin multiplicity:     1
          Use of symmetry is: on ; symmetry adaption is: on 
          Maximum number of iterations: ***
          This is a Direct SCF calculation.
          AO basis - number of functions:    75
                     number of shells:    47
          Convergence on energy requested:  1.00D-06
          Convergence on density requested:  1.00D-05
          Convergence on gradient requested:  5.00D-04

              XC Information
              --------------
                         B3LYP Method XC Potential
                     Hartree-Fock (Exact) Exchange  0.200          
                        Slater Exchange Functional  0.800 local    
                    Becke 1988 Exchange Functional  0.720 non-local
              Lee-Yang-Parr Correlation Functional  0.810          
                  VWN I RPA Correlation Functional  0.190 local    

             Grid Information
             ----------------
          Grid used for XC integration:  fine      
          Radial quadrature: Mura-Knowles        
          Angular quadrature: Lebedev. 
          Tag              B.-S. Rad. Rad. Pts. Rad. Cut. Ang. Pts.
          ---              ---------- --------- --------- ---------
          C                   0.70       70          11.0       590
          Cl                  1.00      123          11.0       770
          H                   0.35       60          12.0       590
          Grid pruning is: on 
          Number of quadrature shells:   573
          Spatial weights used:  Erf1

          Convergence Information
          -----------------------
          Convergence aids based upon iterative change in 
          total energy or number of iterations. 
          Levelshifting, if invoked, occurs when the 
          HOMO/LUMO gap drops below (HL_TOL):  1.00D-02
          DIIS, if invoked, will attempt to extrapolate 
          using up to (NFOCK): 10 stored Fock matrices.

                    Damping( 0%)  Levelshifting(0.5)       DIIS
                  --------------- ------------------- ---------------
          dE  on:    start            ASAP                start   
          dE off:    2 iters        *** iters           *** iters 


      Screening Tolerance Information
      -------------------------------
          Density screening/tol_rho:  1.00D-10
          AO Gaussian exp screening on grid/accAOfunc:  14
          CD Gaussian exp screening on grid/accCDfunc:  20
          XC Gaussian exp screening on grid/accXCfunc:  20
          Schwarz screening/accCoul:  1.00D-08



                            NWChem DFT Gradient Module
                            --------------------------


                               Molecule conformer 0



  charge          =   0.00
  wavefunction    = closed shell

  Using symmetry


                         DFT ENERGY GRADIENTS

    atom               coordinates                        gradient
                 x          y          z           x          y          z
   1 C      -2.109070   2.426157   0.000000    0.019182   0.004695   0.000000
   2 C       0.196026   0.779004   0.000000   -0.021381  -0.044522   0.000000
   3 C       2.506456   1.797832   0.000000   -0.002238   0.012953   0.000000
   4 Cl     -0.141457  -2.528406   0.000000    0.007622   0.027410   0.000000
   5 H      -3.846276   1.250279   0.000000   -0.008473  -0.011137   0.000000
   6 H      -2.119124   3.639805   1.712021    0.002271   0.006193   0.010847
   7 H      -2.119124   3.639805  -1.712021    0.002271   0.006193  -0.010847
   8 H       2.757184   3.834631   0.000000    0.000457   0.003284   0.000000
   9 H       4.171638   0.600411   0.000000    0.000287  -0.005068   0.000000

                 ----------------------------------------
                 |  Time  |  1-e(secs)   |  2-e(secs)   |
                 ----------------------------------------
                 |  CPU   |       0.00   |       0.10   |
                 ----------------------------------------
                 |  WALL  |       0.00   |       0.10   |
                 ----------------------------------------
  no constraints, skipping    0.0000000000000000     

@ Step       Energy      Delta E   Gmax     Grms     Xrms     Xmax   Walltime
@ ---- ---------------- -------- -------- -------- -------- -------- --------
@    0    -579.73530437  0.0D+00  0.02804  0.00728  0.00000  0.00000     31.4
                                                                    



                                Z-matrix (autoz)
                                -------- 

 Units are Angstrom for bonds and degrees for angles

      Type          Name      I     J     K     L     M      Value     Gradient
      ----------- --------  ----- ----- ----- ----- ----- ---------- ----------
    1 Stretch                  1     2                       1.49922   -0.00895
    2 Stretch                  1     5                       1.11008    0.01326
    3 Stretch                  1     6                       1.11052    0.01242
    4 Stretch                  1     7                       1.11052    0.01242
    5 Stretch                  2     3                       1.33622    0.00314
    6 Stretch                  2     4                       1.75929   -0.02804
    7 Stretch                  3     8                       1.08596    0.00331
    8 Stretch                  3     9                       1.08535    0.00319
    9 Bend                     1     2     3               120.65552   -0.00956
   10 Bend                     1     2     4               119.72226    0.00900
   11 Bend                     2     1     5               110.35826   -0.00295
   12 Bend                     2     1     6               109.88459   -0.00117
   13 Bend                     2     1     7               109.88459   -0.00117
   14 Bend                     2     3     8               120.81377    0.00147
   15 Bend                     2     3     9               120.48433   -0.00288
   16 Bend                     3     2     4               119.62221    0.00056
   17 Bend                     5     1     6               108.67524    0.00198
   18 Bend                     5     1     7               108.67524    0.00198
   19 Bend                     6     1     7               109.33265    0.00144
   20 Bend                     8     3     9               118.70189    0.00141
   21 Torsion                  1     2     3     8           0.00000   -0.00000
   22 Torsion                  1     2     3     9         180.00000   -0.00000
   23 Torsion                  3     2     1     5         180.00000    0.00000
   24 Torsion                  3     2     1     6         -60.17167   -0.00015
   25 Torsion                  3     2     1     7          60.17167    0.00015
   26 Torsion                  4     2     1     5           0.00000    0.00000
   27 Torsion                  4     2     1     6         119.82833   -0.00015
   28 Torsion                  4     2     1     7        -119.82833    0.00015
   29 Torsion                  4     2     3     8         180.00000    0.00000
   30 Torsion                  4     2     3     9           0.00000    0.00000

  no constraints, skipping    0.0000000000000000     
  no constraints, skipping    0.0000000000000000     
  no constraints, skipping    0.0000000000000000     
  no constraints, skipping    0.0000000000000000     
  no constraints, skipping    0.0000000000000000     
  no constraints, skipping    0.0000000000000000     
  no constraints, skipping    0.0000000000000000     
  no constraints, skipping    0.0000000000000000     

                                 NWChem DFT Module
                                 -----------------


                               Molecule conformer 0




 Summary of "ao basis" -> "ao basis" (spherical)
 ------------------------------------------------------------------------------
       Tag                 Description            Shells   Functions and Types
 ---------------- ------------------------------  ------  ---------------------
 C                           6-311G                  7       13   4s3p
 Cl                          6-311G                 11       21   6s5p
 H                           6-311G                  3        3   3s


      Symmetry analysis of basis
      --------------------------

        a'         58
        a"         17

  Caching 1-el integrals 

            General Information
            -------------------
          SCF calculation type: DFT
          Wavefunction type:  closed shell.
          No. of atoms     :     9
          No. of electrons :    40
           Alpha electrons :    20
            Beta electrons :    20
          Charge           :     0
          Spin multiplicity:     1
          Use of symmetry is: on ; symmetry adaption is: on 
          Maximum number of iterations: ***
          This is a Direct SCF calculation.
          AO basis - number of functions:    75
                     number of shells:    47
          Convergence on energy requested:  1.00D-06
          Convergence on density requested:  1.00D-05
          Convergence on gradient requested:  5.00D-04

              XC Information
              --------------
                         B3LYP Method XC Potential
                     Hartree-Fock (Exact) Exchange  0.200          
                        Slater Exchange Functional  0.800 local    
                    Becke 1988 Exchange Functional  0.720 non-local
              Lee-Yang-Parr Correlation Functional  0.810          
                  VWN I RPA Correlation Functional  0.190 local    

             Grid Information
             ----------------
          Grid used for XC integration:  fine      
          Radial quadrature: Mura-Knowles        
          Angular quadrature: Lebedev. 
          Tag              B.-S. Rad. Rad. Pts. Rad. Cut. Ang. Pts.
          ---              ---------- --------- --------- ---------
          C                   0.70       70          11.0       590
          Cl                  1.00      123          11.0       770
          H                   0.35       60          12.0       590
          Grid pruning is: on 
          Number of quadrature shells:   573
          Spatial weights used:  Erf1

          Convergence Information
          -----------------------
          Convergence aids based upon iterative change in 
          total energy or number of iterations. 
          Levelshifting, if invoked, occurs when the 
          HOMO/LUMO gap drops below (HL_TOL):  1.00D-02
          DIIS, if invoked, will attempt to extrapolate 
          using up to (NFOCK): 10 stored Fock matrices.

                    Damping( 0%)  Levelshifting(0.5)       DIIS
                  --------------- ------------------- ---------------
          dE  on:    start            ASAP                start   
          dE off:    2 iters        *** iters           *** iters 


      Screening Tolerance Information
      -------------------------------
          Density screening/tol_rho:  1.00D-10
          AO Gaussian exp screening on grid/accAOfunc:  14
          CD Gaussian exp screening on grid/accCDfunc:  20
          XC Gaussian exp screening on grid/accXCfunc:  20
          Schwarz screening/accCoul:  1.00D-08

          Performing ZORA calculations
          ----------------------------


      Superposition of Atomic Density Guess
      -------------------------------------

 Sum of atomic energies:        -574.98156165

 Read atomic ZORA corrections from ./CC(=C)Cl_mol_3_conformer_0.zora_sf

 Forcing recalculation of ZORA corrections
       Generating atomic ZORA corrections
       ----------------------------------

 In dft_scf:: zora:Knucl= F

 Grid_pts file          = ./CC(=C)Cl_mol_3_conformer_0.gridpts.00
 Record size in doubles =  12289        No. of grid_pts per rec  =   3070
 Max. records in memory =      5        Max. recs in file   =     13507


 Wrote atomic ZORA corrections to ./CC(=C)Cl_mol_3_conformer_0.zora_sf


 Loading old vectors from job with title :

Molecule conformer 0


      Symmetry analysis of molecular orbitals - initial
      -------------------------------------------------

  Numbering of irreducible representations: 

     1 a'          2 a"      

  Orbital symmetries:

     1 a'          2 a'          3 a'          4 a'          5 a'      
     6 a'          7 a"          8 a'          9 a'         10 a'      
    11 a'         12 a'         13 a'         14 a'         15 a"      
    16 a'         17 a'         18 a"         19 a'         20 a"      
    21 a"         22 a'         23 a'         24 a'         25 a'      
    26 a'         27 a"         28 a'         29 a'         30 a"      

   Time after variat. SCF:     37.8
   Time prior to 1st pass:     37.8

           Memory utilization after 1st SCF pass: 
           Heap Space remaining (MW):      131.01           131006392
          Stack Space remaining (MW):      131.06           131060060

   convergence    iter        energy       DeltaE   RMS-Dens  Diis-err    time
 ---------------- ----- ----------------- --------- --------- ---------  ------
 d= 0,ls=0.0,diis     1   -579.7378431433 -7.27D+02  2.03D-03  9.18D-03    40.0
 d= 0,ls=0.0,diis     2   -579.7395302067 -1.69D-03  5.75D-04  1.87D-03    42.9
 d= 0,ls=0.0,diis     3   -579.7395505640 -2.04D-05  3.72D-04  1.67D-03    45.4
 d= 0,ls=0.0,diis     4   -579.7397398162 -1.89D-04  1.08D-04  1.38D-04    47.7
 d= 0,ls=0.0,diis     5   -579.7397583429 -1.85D-05  1.61D-05  1.55D-06    50.2
 d= 0,ls=0.0,diis     6   -579.7397585378 -1.95D-07  3.74D-06  2.03D-08    52.6
(nogshift,skip_gshiftAOev,done_Fji)=( 1,F,F)


         Total DFT energy =     -579.739758537760
      One electron energy =    -1085.814378951526
           Coulomb energy =      405.785982549295
    Exchange-Corr. energy =      -46.487816575637
 Nuclear repulsion energy =      146.776454440108

       Scaling correction =        0.810131200806

 Numeric. integr. density =       40.000000527111

     Total iterative time =     14.9s



                  Occupations of the irreducible representations
                  ----------------------------------------------

                     irrep           alpha         beta
                     --------     --------     --------
                     a'               16.0         16.0
                     a"                4.0          4.0


 center of mass
 --------------
 x =  -0.00338474 y =  -0.18602998 z =   0.00000000

 moments of inertia (a.u.)
 ------------------
         384.805539864807          -6.404851851396           0.000000000000
          -6.404851851396         194.461663694555           0.000000000000
           0.000000000000           0.000000000000         567.989593147624
 Line search: 
     step= 1.00 grad=-7.2D-03 hess= 2.7D-03 energy=   -579.739759 mode=downhill
 new step= 1.32                   predicted energy=   -579.740036
  no constraints, skipping    0.0000000000000000     
  no constraints, skipping    0.0000000000000000     
  no constraints, skipping    0.0000000000000000     
  no constraints, skipping    0.0000000000000000     
  no constraints, skipping    0.0000000000000000     
  no constraints, skipping    0.0000000000000000     
  no constraints, skipping    0.0000000000000000     
  no constraints, skipping    0.0000000000000000     

          --------
          Step   1
          --------


                         Geometry "geometry" -> "geometry"
                         ---------------------------------

 Output coordinates in angstroms (scale by  1.889725989 to convert to a.u.)

  No.       Tag          Charge          X              Y              Z
 ---- ---------------- ---------- -------------- -------------- --------------
    1 C                    6.0000    -1.14206991     1.27908144     0.00000000
    2 C                    6.0000     0.13729097     0.46713276     0.00000000
    3 C                    6.0000     1.37982340     0.94741467     0.00000000
    4 Cl                  17.0000    -0.12130017    -1.32793550     0.00000000
    5 H                    1.0000    -2.02800339     0.65741590     0.00000000
    6 H                    1.0000    -1.19515941     1.91279460     0.87843781
    7 H                    1.0000    -1.19515941     1.91279460    -0.87843781
    8 H                    1.0000     1.54375353     2.01422548     0.00000000
    9 H                    1.0000     2.24841767     0.30731870     0.00000000

      Atomic Mass 
      ----------- 

      C                 12.000000
      Cl                34.968850
      H                  1.007825


 Effective nuclear repulsion energy (a.u.)     146.4756891113

            Nuclear Dipole moment (a.u.) 
            ----------------------------
        X                 Y               Z
 ---------------- ---------------- ----------------
    -0.8276756139     0.7396747166     0.0000000000

      Symmetry information
      --------------------

 Group name             Cs        
 Group number              2
 Group order               2
 No. of unique centers     8

      Symmetry unique atoms

     1    2    3    4    5    6    8    9


                                 NWChem DFT Module
                                 -----------------


                               Molecule conformer 0




 Summary of "ao basis" -> "ao basis" (spherical)
 ------------------------------------------------------------------------------
       Tag                 Description            Shells   Functions and Types
 ---------------- ------------------------------  ------  ---------------------
 C                           6-311G                  7       13   4s3p
 Cl                          6-311G                 11       21   6s5p
 H                           6-311G                  3        3   3s


      Symmetry analysis of basis
      --------------------------

        a'         58
        a"         17

  Caching 1-el integrals 

            General Information
            -------------------
          SCF calculation type: DFT
          Wavefunction type:  closed shell.
          No. of atoms     :     9
          No. of electrons :    40
           Alpha electrons :    20
            Beta electrons :    20
          Charge           :     0
          Spin multiplicity:     1
          Use of symmetry is: on ; symmetry adaption is: on 
          Maximum number of iterations: ***
          This is a Direct SCF calculation.
          AO basis - number of functions:    75
                     number of shells:    47
          Convergence on energy requested:  1.00D-06
          Convergence on density requested:  1.00D-05
          Convergence on gradient requested:  5.00D-04

              XC Information
              --------------
                         B3LYP Method XC Potential
                     Hartree-Fock (Exact) Exchange  0.200          
                        Slater Exchange Functional  0.800 local    
                    Becke 1988 Exchange Functional  0.720 non-local
              Lee-Yang-Parr Correlation Functional  0.810          
                  VWN I RPA Correlation Functional  0.190 local    

             Grid Information
             ----------------
          Grid used for XC integration:  fine      
          Radial quadrature: Mura-Knowles        
          Angular quadrature: Lebedev. 
          Tag              B.-S. Rad. Rad. Pts. Rad. Cut. Ang. Pts.
          ---              ---------- --------- --------- ---------
          C                   0.70       70          11.0       590
          Cl                  1.00      123          11.0       770
          H                   0.35       60          12.0       590
          Grid pruning is: on 
          Number of quadrature shells:   573
          Spatial weights used:  Erf1

          Convergence Information
          -----------------------
          Convergence aids based upon iterative change in 
          total energy or number of iterations. 
          Levelshifting, if invoked, occurs when the 
          HOMO/LUMO gap drops below (HL_TOL):  1.00D-02
          DIIS, if invoked, will attempt to extrapolate 
          using up to (NFOCK): 10 stored Fock matrices.

                    Damping( 0%)  Levelshifting(0.5)       DIIS
                  --------------- ------------------- ---------------
          dE  on:    start            ASAP                start   
          dE off:    2 iters        *** iters           *** iters 


      Screening Tolerance Information
      -------------------------------
          Density screening/tol_rho:  1.00D-10
          AO Gaussian exp screening on grid/accAOfunc:  14
          CD Gaussian exp screening on grid/accCDfunc:  20
          XC Gaussian exp screening on grid/accXCfunc:  20
          Schwarz screening/accCoul:  1.00D-08

          Performing ZORA calculations
          ----------------------------


      Superposition of Atomic Density Guess
      -------------------------------------

 Sum of atomic energies:        -574.98156165

 Read atomic ZORA corrections from ./CC(=C)Cl_mol_3_conformer_0.zora_sf

 Forcing recalculation of ZORA corrections
       Generating atomic ZORA corrections
       ----------------------------------

 In dft_scf:: zora:Knucl= F

 Grid_pts file          = ./CC(=C)Cl_mol_3_conformer_0.gridpts.00
 Record size in doubles =  12289        No. of grid_pts per rec  =   3070
 Max. records in memory =      5        Max. recs in file   =     13507


 Wrote atomic ZORA corrections to ./CC(=C)Cl_mol_3_conformer_0.zora_sf


 Loading old vectors from job with title :

Molecule conformer 0


      Symmetry analysis of molecular orbitals - initial
      -------------------------------------------------

  Numbering of irreducible representations: 

     1 a'          2 a"      

  Orbital symmetries:

     1 a'          2 a'          3 a'          4 a'          5 a'      
     6 a'          7 a"          8 a'          9 a'         10 a'      
    11 a'         12 a'         13 a'         14 a'         15 a"      
    16 a'         17 a'         18 a"         19 a'         20 a"      
    21 a"         22 a'         23 a'         24 a'         25 a'      
    26 a"         27 a'         28 a'         29 a'         30 a"      

   Time after variat. SCF:     58.8
   Time prior to 1st pass:     58.8

           Memory utilization after 1st SCF pass: 
           Heap Space remaining (MW):      131.01           131006392
          Stack Space remaining (MW):      131.06           131060060

   convergence    iter        energy       DeltaE   RMS-Dens  Diis-err    time
 ---------------- ----- ----------------- --------- --------- ---------  ------
 d= 0,ls=0.0,diis     1   -579.7398802329 -7.26D+02  6.53D-04  9.08D-04    61.4
 d= 0,ls=0.0,diis     2   -579.7400490271 -1.69D-04  1.78D-04  1.77D-04    64.0
 d= 0,ls=0.0,diis     3   -579.7400511298 -2.10D-06  1.13D-04  1.58D-04    66.8
 d= 0,ls=0.0,diis     4   -579.7400689841 -1.79D-05  3.37D-05  1.33D-05    69.6
 d= 0,ls=0.0,diis     5   -579.7400707619 -1.78D-06  4.95D-06  1.57D-07    71.6
 d= 0,ls=0.0,diis     6   -579.7400707816 -1.97D-08  1.20D-06  1.97D-09    73.9
(nogshift,skip_gshiftAOev,done_Fji)=( 1,F,F)


         Total DFT energy =     -579.740070781566
      One electron energy =    -1085.223856573396
           Coulomb energy =      405.498165819110
    Exchange-Corr. energy =      -46.490069138536
 Nuclear repulsion energy =      146.475689111256

       Scaling correction =        0.810113742779

 Numeric. integr. density =       40.000001385340

     Total iterative time =     15.3s



                  Occupations of the irreducible representations
                  ----------------------------------------------

                     irrep           alpha         beta
                     --------     --------     --------
                     a'               16.0         16.0
                     a"                4.0          4.0


 center of mass
 --------------
 x =  -0.00925482 y =  -0.18037620 z =   0.00000000

 moments of inertia (a.u.)
 ------------------
         384.046961433749          -8.581007685818           0.000000000000
          -8.581007685818         197.529898800128           0.000000000000
           0.000000000000           0.000000000000         570.468119398600

            General Information
            -------------------
          SCF calculation type: DFT
          Wavefunction type:  closed shell.
          No. of atoms     :     9
          No. of electrons :    40
           Alpha electrons :    20
            Beta electrons :    20
          Charge           :     0
          Spin multiplicity:     1
          Use of symmetry is: on ; symmetry adaption is: on 
          Maximum number of iterations: ***
          This is a Direct SCF calculation.
          AO basis - number of functions:    75
                     number of shells:    47
          Convergence on energy requested:  1.00D-06
          Convergence on density requested:  1.00D-05
          Convergence on gradient requested:  5.00D-04

              XC Information
              --------------
                         B3LYP Method XC Potential
                     Hartree-Fock (Exact) Exchange  0.200          
                        Slater Exchange Functional  0.800 local    
                    Becke 1988 Exchange Functional  0.720 non-local
              Lee-Yang-Parr Correlation Functional  0.810          
                  VWN I RPA Correlation Functional  0.190 local    

             Grid Information
             ----------------
          Grid used for XC integration:  fine      
          Radial quadrature: Mura-Knowles        
          Angular quadrature: Lebedev. 
          Tag              B.-S. Rad. Rad. Pts. Rad. Cut. Ang. Pts.
          ---              ---------- --------- --------- ---------
          C                   0.70       70          11.0       590
          Cl                  1.00      123          11.0       770
          H                   0.35       60          12.0       590
          Grid pruning is: on 
          Number of quadrature shells:   573
          Spatial weights used:  Erf1

          Convergence Information
          -----------------------
          Convergence aids based upon iterative change in 
          total energy or number of iterations. 
          Levelshifting, if invoked, occurs when the 
          HOMO/LUMO gap drops below (HL_TOL):  1.00D-02
          DIIS, if invoked, will attempt to extrapolate 
          using up to (NFOCK): 10 stored Fock matrices.

                    Damping( 0%)  Levelshifting(0.5)       DIIS
                  --------------- ------------------- ---------------
          dE  on:    start            ASAP                start   
          dE off:    2 iters        *** iters           *** iters 


      Screening Tolerance Information
      -------------------------------
          Density screening/tol_rho:  1.00D-10
          AO Gaussian exp screening on grid/accAOfunc:  14
          CD Gaussian exp screening on grid/accCDfunc:  20
          XC Gaussian exp screening on grid/accXCfunc:  20
          Schwarz screening/accCoul:  1.00D-08



                            NWChem DFT Gradient Module
                            --------------------------


                               Molecule conformer 0



  charge          =   0.00
  wavefunction    = closed shell

  Using symmetry


                         DFT ENERGY GRADIENTS

    atom               coordinates                        gradient
                 x          y          z           x          y          z
   1 C      -2.158199   2.417113   0.000000   -0.004280   0.004378   0.000000
   2 C       0.259442   0.882753   0.000000   -0.001070  -0.018073   0.000000
   3 C       2.607488   1.790354   0.000000    0.005897   0.006155   0.000000
   4 Cl     -0.229224  -2.509434   0.000000    0.000710   0.012023   0.000000
   5 H      -3.832371   1.242336   0.000000    0.000984   0.003799   0.000000
   6 H      -2.258524   3.614658   1.660007   -0.000977  -0.002988  -0.003711
   7 H      -2.258524   3.614658  -1.660007   -0.000977  -0.002988   0.003711
   8 H       2.917271   3.806334   0.000000   -0.000056  -0.002258   0.000000
   9 H       4.248893   0.580748   0.000000   -0.000232  -0.000048   0.000000

                 ----------------------------------------
                 |  Time  |  1-e(secs)   |  2-e(secs)   |
                 ----------------------------------------
                 |  CPU   |       0.00   |       0.10   |
                 ----------------------------------------
                 |  WALL  |       0.00   |       0.10   |
                 ----------------------------------------
  no constraints, skipping    0.0000000000000000     

  Step       Energy      Delta E   Gmax     Grms     Xrms     Xmax   Walltime
  ---- ---------------- -------- -------- -------- -------- -------- --------
@    1    -579.74007078 -4.8D-03  0.01200  0.00308  0.06462  0.15847     76.2
                                                                    



                                Z-matrix (autoz)
                                -------- 

 Units are Angstrom for bonds and degrees for angles

      Type          Name      I     J     K     L     M      Value     Gradient
      ----------- --------  ----- ----- ----- ----- ----- ---------- ----------
    1 Stretch                  1     2                       1.51526    0.00561
    2 Stretch                  1     5                       1.08229   -0.00299
    3 Stretch                  1     6                       1.08446   -0.00470
    4 Stretch                  1     7                       1.08446   -0.00470
    5 Stretch                  2     3                       1.33213    0.00662
    6 Stretch                  2     4                       1.81360   -0.01200
    7 Stretch                  3     8                       1.07933   -0.00224
    8 Stretch                  3     9                       1.07897   -0.00016
    9 Bend                     1     2     3               126.46543   -0.00045
   10 Bend                     1     2     4               114.20390   -0.00069
   11 Bend                     2     1     5               112.54107    0.00161
   12 Bend                     2     1     6               110.76023    0.00032
   13 Bend                     2     1     7               110.76023    0.00032
   14 Bend                     2     3     8               119.86920    0.00027
   15 Bend                     2     3     9               122.47902   -0.00023
   16 Bend                     3     2     4               119.33068    0.00114
   17 Bend                     5     1     6               107.19236   -0.00108
   18 Bend                     5     1     7               107.19236   -0.00108
   19 Bend                     6     1     7               108.19571   -0.00023
   20 Bend                     8     3     9               117.65178   -0.00004
   21 Torsion                  1     2     3     8           0.00000    0.00000
   22 Torsion                  1     2     3     9         180.00000    0.00000
   23 Torsion                  3     2     1     5         180.00000   -0.00000
   24 Torsion                  3     2     1     6         -60.02742   -0.00007
   25 Torsion                  3     2     1     7          60.02742    0.00007
   26 Torsion                  4     2     1     5           0.00000    0.00000
   27 Torsion                  4     2     1     6         119.97258   -0.00007
   28 Torsion                  4     2     1     7        -119.97258    0.00007
   29 Torsion                  4     2     3     8         180.00000   -0.00000
   30 Torsion                  4     2     3     9           0.00000   -0.00000

  no constraints, skipping    0.0000000000000000     
  no constraints, skipping    0.0000000000000000     
  no constraints, skipping    0.0000000000000000     
  no constraints, skipping    0.0000000000000000     
  no constraints, skipping    0.0000000000000000     
  no constraints, skipping    0.0000000000000000     
  no constraints, skipping    0.0000000000000000     
  no constraints, skipping    0.0000000000000000     

                                 NWChem DFT Module
                                 -----------------


                               Molecule conformer 0




 Summary of "ao basis" -> "ao basis" (spherical)
 ------------------------------------------------------------------------------
       Tag                 Description            Shells   Functions and Types
 ---------------- ------------------------------  ------  ---------------------
 C                           6-311G                  7       13   4s3p
 Cl                          6-311G                 11       21   6s5p
 H                           6-311G                  3        3   3s


      Symmetry analysis of basis
      --------------------------

        a'         58
        a"         17

  Caching 1-el integrals 

            General Information
            -------------------
          SCF calculation type: DFT
          Wavefunction type:  closed shell.
          No. of atoms     :     9
          No. of electrons :    40
           Alpha electrons :    20
            Beta electrons :    20
          Charge           :     0
          Spin multiplicity:     1
          Use of symmetry is: on ; symmetry adaption is: on 
          Maximum number of iterations: ***
          This is a Direct SCF calculation.
          AO basis - number of functions:    75
                     number of shells:    47
          Convergence on energy requested:  1.00D-06
          Convergence on density requested:  1.00D-05
          Convergence on gradient requested:  5.00D-04

              XC Information
              --------------
                         B3LYP Method XC Potential
                     Hartree-Fock (Exact) Exchange  0.200          
                        Slater Exchange Functional  0.800 local    
                    Becke 1988 Exchange Functional  0.720 non-local
              Lee-Yang-Parr Correlation Functional  0.810          
                  VWN I RPA Correlation Functional  0.190 local    

             Grid Information
             ----------------
          Grid used for XC integration:  fine      
          Radial quadrature: Mura-Knowles        
          Angular quadrature: Lebedev. 
          Tag              B.-S. Rad. Rad. Pts. Rad. Cut. Ang. Pts.
          ---              ---------- --------- --------- ---------
          C                   0.70       70          11.0       590
          Cl                  1.00      123          11.0       770
          H                   0.35       60          12.0       590
          Grid pruning is: on 
          Number of quadrature shells:   573
          Spatial weights used:  Erf1

          Convergence Information
          -----------------------
          Convergence aids based upon iterative change in 
          total energy or number of iterations. 
          Levelshifting, if invoked, occurs when the 
          HOMO/LUMO gap drops below (HL_TOL):  1.00D-02
          DIIS, if invoked, will attempt to extrapolate 
          using up to (NFOCK): 10 stored Fock matrices.

                    Damping( 0%)  Levelshifting(0.5)       DIIS
                  --------------- ------------------- ---------------
          dE  on:    start            ASAP                start   
          dE off:    2 iters        *** iters           *** iters 


      Screening Tolerance Information
      -------------------------------
          Density screening/tol_rho:  1.00D-10
          AO Gaussian exp screening on grid/accAOfunc:  14
          CD Gaussian exp screening on grid/accCDfunc:  20
          XC Gaussian exp screening on grid/accXCfunc:  20
          Schwarz screening/accCoul:  1.00D-08

          Performing ZORA calculations
          ----------------------------


      Superposition of Atomic Density Guess
      -------------------------------------

 Sum of atomic energies:        -574.98156165

 Read atomic ZORA corrections from ./CC(=C)Cl_mol_3_conformer_0.zora_sf

 Forcing recalculation of ZORA corrections
       Generating atomic ZORA corrections
       ----------------------------------

 In dft_scf:: zora:Knucl= F

 Grid_pts file          = ./CC(=C)Cl_mol_3_conformer_0.gridpts.00
 Record size in doubles =  12289        No. of grid_pts per rec  =   3070
 Max. records in memory =      5        Max. recs in file   =     13507


 Wrote atomic ZORA corrections to ./CC(=C)Cl_mol_3_conformer_0.zora_sf


 Loading old vectors from job with title :

Molecule conformer 0


      Symmetry analysis of molecular orbitals - initial
      -------------------------------------------------

  Numbering of irreducible representations: 

     1 a'          2 a"      

  Orbital symmetries:

     1 a'          2 a'          3 a'          4 a'          5 a'      
     6 a'          7 a"          8 a'          9 a'         10 a'      
    11 a'         12 a'         13 a'         14 a'         15 a"      
    16 a'         17 a'         18 a"         19 a'         20 a"      
    21 a"         22 a'         23 a'         24 a'         25 a'      
    26 a"         27 a'         28 a'         29 a'         30 a"      

   Time after variat. SCF:     82.9
   Time prior to 1st pass:     83.0

           Memory utilization after 1st SCF pass: 
           Heap Space remaining (MW):      131.01           131006392
          Stack Space remaining (MW):      131.06           131060060

   convergence    iter        energy       DeltaE   RMS-Dens  Diis-err    time
 ---------------- ----- ----------------- --------- --------- ---------  ------
 d= 0,ls=0.0,diis     1   -579.7404729799 -7.26D+02  6.18D-04  1.09D-03    84.9
 d= 0,ls=0.0,diis     2   -579.7406763766 -2.03D-04  1.88D-04  6.17D-05    87.5
 d= 0,ls=0.0,diis     3   -579.7406661555  1.02D-05  1.06D-04  1.44D-04    89.7
 d= 0,ls=0.0,diis     4   -579.7406844702 -1.83D-05  1.97D-05  3.07D-06    91.7
 d= 0,ls=0.0,diis     5   -579.7406848397 -3.69D-07  4.15D-06  3.63D-07    93.4
(nogshift,skip_gshiftAOev,done_Fji)=( 1,F,F)


         Total DFT energy =     -579.740684839729
      One electron energy =    -1084.399524253078
           Coulomb energy =      405.091408630949
    Exchange-Corr. energy =      -46.484146585877
 Nuclear repulsion energy =      146.051577368277

       Scaling correction =        0.810095137834

 Numeric. integr. density =       40.000001386521

     Total iterative time =     10.5s



                  Occupations of the irreducible representations
                  ----------------------------------------------

                     irrep           alpha         beta
                     --------     --------     --------
                     a'               16.0         16.0
                     a"                4.0          4.0


 center of mass
 --------------
 x =  -0.01194490 y =  -0.18556919 z =   0.00000000

 moments of inertia (a.u.)
 ------------------
         388.458064176953          -8.892769256554           0.000000000000
          -8.892769256554         197.012182782941           0.000000000000
           0.000000000000           0.000000000000         574.259115871617
 Line search: 
     step= 1.00 grad=-9.1D-04 hess= 2.9D-04 energy=   -579.740685 mode=downhill
 new step= 1.55                   predicted energy=   -579.740774
  no constraints, skipping    0.0000000000000000     
  no constraints, skipping    0.0000000000000000     
  no constraints, skipping    0.0000000000000000     
  no constraints, skipping    0.0000000000000000     
  no constraints, skipping    0.0000000000000000     
  no constraints, skipping    0.0000000000000000     
  no constraints, skipping    0.0000000000000000     
  no constraints, skipping    0.0000000000000000     

          --------
          Step   2
          --------


                         Geometry "geometry" -> "geometry"
                         ---------------------------------

 Output coordinates in angstroms (scale by  1.889725989 to convert to a.u.)

  No.       Tag          Charge          X              Y              Z
 ---- ---------------- ---------- -------------- -------------- --------------
    1 C                    6.0000    -1.14130386     1.28344513     0.00000000
    2 C                    6.0000     0.13627400     0.48666167     0.00000000
    3 C                    6.0000     1.37481748     0.94633980     0.00000000
    4 Cl                  17.0000    -0.12456153    -1.34489961     0.00000000
    5 H                    1.0000    -2.01295539     0.63654225     0.00000000
    6 H                    1.0000    -1.19572261     1.92170501     0.88470694
    7 H                    1.0000    -1.19572261     1.92170501    -0.88470694
    8 H                    1.0000     1.54691877     2.01627406     0.00000000
    9 H                    1.0000     2.23984904     0.30246934     0.00000000

      Atomic Mass 
      ----------- 

      C                 12.000000
      Cl                34.968850
      H                  1.007825


 Effective nuclear repulsion energy (a.u.)     145.8232141215

            Nuclear Dipole moment (a.u.) 
            ----------------------------
        X                 Y               Z
 ---------------- ---------------- ----------------
    -0.9759548902     0.4423506607     0.0000000000

      Symmetry information
      --------------------

 Group name             Cs        
 Group number              2
 Group order               2
 No. of unique centers     8

      Symmetry unique atoms

     1    2    3    4    5    6    8    9


                                 NWChem DFT Module
                                 -----------------


                               Molecule conformer 0




 Summary of "ao basis" -> "ao basis" (spherical)
 ------------------------------------------------------------------------------
       Tag                 Description            Shells   Functions and Types
 ---------------- ------------------------------  ------  ---------------------
 C                           6-311G                  7       13   4s3p
 Cl                          6-311G                 11       21   6s5p
 H                           6-311G                  3        3   3s


      Symmetry analysis of basis
      --------------------------

        a'         58
        a"         17

  Caching 1-el integrals 

            General Information
            -------------------
          SCF calculation type: DFT
          Wavefunction type:  closed shell.
          No. of atoms     :     9
          No. of electrons :    40
           Alpha electrons :    20
            Beta electrons :    20
          Charge           :     0
          Spin multiplicity:     1
          Use of symmetry is: on ; symmetry adaption is: on 
          Maximum number of iterations: ***
          This is a Direct SCF calculation.
          AO basis - number of functions:    75
                     number of shells:    47
          Convergence on energy requested:  1.00D-06
          Convergence on density requested:  1.00D-05
          Convergence on gradient requested:  5.00D-04

              XC Information
              --------------
                         B3LYP Method XC Potential
                     Hartree-Fock (Exact) Exchange  0.200          
                        Slater Exchange Functional  0.800 local    
                    Becke 1988 Exchange Functional  0.720 non-local
              Lee-Yang-Parr Correlation Functional  0.810          
                  VWN I RPA Correlation Functional  0.190 local    

             Grid Information
             ----------------
          Grid used for XC integration:  fine      
          Radial quadrature: Mura-Knowles        
          Angular quadrature: Lebedev. 
          Tag              B.-S. Rad. Rad. Pts. Rad. Cut. Ang. Pts.
          ---              ---------- --------- --------- ---------
          C                   0.70       70          11.0       590
          Cl                  1.00      123          11.0       770
          H                   0.35       60          12.0       590
          Grid pruning is: on 
          Number of quadrature shells:   573
          Spatial weights used:  Erf1

          Convergence Information
          -----------------------
          Convergence aids based upon iterative change in 
          total energy or number of iterations. 
          Levelshifting, if invoked, occurs when the 
          HOMO/LUMO gap drops below (HL_TOL):  1.00D-02
          DIIS, if invoked, will attempt to extrapolate 
          using up to (NFOCK): 10 stored Fock matrices.

                    Damping( 0%)  Levelshifting(0.5)       DIIS
                  --------------- ------------------- ---------------
          dE  on:    start            ASAP                start   
          dE off:    2 iters        *** iters           *** iters 


      Screening Tolerance Information
      -------------------------------
          Density screening/tol_rho:  1.00D-10
          AO Gaussian exp screening on grid/accAOfunc:  14
          CD Gaussian exp screening on grid/accCDfunc:  20
          XC Gaussian exp screening on grid/accXCfunc:  20
          Schwarz screening/accCoul:  1.00D-08

          Performing ZORA calculations
          ----------------------------


      Superposition of Atomic Density Guess
      -------------------------------------

 Sum of atomic energies:        -574.98156165

 Read atomic ZORA corrections from ./CC(=C)Cl_mol_3_conformer_0.zora_sf

 Forcing recalculation of ZORA corrections
       Generating atomic ZORA corrections
       ----------------------------------

 In dft_scf:: zora:Knucl= F

 Grid_pts file          = ./CC(=C)Cl_mol_3_conformer_0.gridpts.00
 Record size in doubles =  12289        No. of grid_pts per rec  =   3070
 Max. records in memory =      5        Max. recs in file   =     13507


 Wrote atomic ZORA corrections to ./CC(=C)Cl_mol_3_conformer_0.zora_sf


 Loading old vectors from job with title :

Molecule conformer 0


      Symmetry analysis of molecular orbitals - initial
      -------------------------------------------------

  Numbering of irreducible representations: 

     1 a'          2 a"      

  Orbital symmetries:

     1 a'          2 a'          3 a'          4 a'          5 a'      
     6 a'          7 a"          8 a'          9 a'         10 a'      
    11 a'         12 a'         13 a'         14 a'         15 a"      
    16 a'         17 a'         18 a"         19 a'         20 a"      
    21 a"         22 a'         23 a'         24 a'         25 a'      
    26 a"         27 a'         28 a'         29 a'         30 a"      

   Time after variat. SCF:    100.1
   Time prior to 1st pass:    100.1

           Memory utilization after 1st SCF pass: 
           Heap Space remaining (MW):      131.01           131006392
          Stack Space remaining (MW):      131.06           131060060

   convergence    iter        energy       DeltaE   RMS-Dens  Diis-err    time
 ---------------- ----- ----------------- --------- --------- ---------  ------
 d= 0,ls=0.0,diis     1   -579.7407218805 -7.26D+02  3.36D-04  3.22D-04   102.7
 d= 0,ls=0.0,diis     2   -579.7407824998 -6.06D-05  9.90D-05  1.71D-05   104.5
 d= 0,ls=0.0,diis     3   -579.7407799426  2.56D-06  5.49D-05  3.80D-05   107.3
 d= 0,ls=0.0,diis     4   -579.7407847413 -4.80D-06  1.12D-05  1.00D-06   110.1
 d= 0,ls=0.0,diis     5   -579.7407848626 -1.21D-07  2.41D-06  1.10D-07   112.0
(nogshift,skip_gshiftAOev,done_Fji)=( 1,F,F)


         Total DFT energy =     -579.740784862600
      One electron energy =    -1083.954909368726
           Coulomb energy =      404.871997733715
    Exchange-Corr. energy =      -46.481087349104
 Nuclear repulsion energy =      145.823214121515

       Scaling correction =        0.810084804799

 Numeric. integr. density =       40.000001287048

     Total iterative time =     12.0s



                  Occupations of the irreducible representations
                  ----------------------------------------------

                     irrep           alpha         beta
                     --------     --------     --------
                     a'               16.0         16.0
                     a"                4.0          4.0


 center of mass
 --------------
 x =  -0.01344518 y =  -0.18846393 z =   0.00000000

 moments of inertia (a.u.)
 ------------------
         390.919900876412          -9.063842603647           0.000000000000
          -9.063842603647         196.712204929015           0.000000000000
           0.000000000000           0.000000000000         576.364240163431

            General Information
            -------------------
          SCF calculation type: DFT
          Wavefunction type:  closed shell.
          No. of atoms     :     9
          No. of electrons :    40
           Alpha electrons :    20
            Beta electrons :    20
          Charge           :     0
          Spin multiplicity:     1
          Use of symmetry is: on ; symmetry adaption is: on 
          Maximum number of iterations: ***
          This is a Direct SCF calculation.
          AO basis - number of functions:    75
                     number of shells:    47
          Convergence on energy requested:  1.00D-06
          Convergence on density requested:  1.00D-05
          Convergence on gradient requested:  5.00D-04

              XC Information
              --------------
                         B3LYP Method XC Potential
                     Hartree-Fock (Exact) Exchange  0.200          
                        Slater Exchange Functional  0.800 local    
                    Becke 1988 Exchange Functional  0.720 non-local
              Lee-Yang-Parr Correlation Functional  0.810          
                  VWN I RPA Correlation Functional  0.190 local    

             Grid Information
             ----------------
          Grid used for XC integration:  fine      
          Radial quadrature: Mura-Knowles        
          Angular quadrature: Lebedev. 
          Tag              B.-S. Rad. Rad. Pts. Rad. Cut. Ang. Pts.
          ---              ---------- --------- --------- ---------
          C                   0.70       70          11.0       590
          Cl                  1.00      123          11.0       770
          H                   0.35       60          12.0       590
          Grid pruning is: on 
          Number of quadrature shells:   573
          Spatial weights used:  Erf1

          Convergence Information
          -----------------------
          Convergence aids based upon iterative change in 
          total energy or number of iterations. 
          Levelshifting, if invoked, occurs when the 
          HOMO/LUMO gap drops below (HL_TOL):  1.00D-02
          DIIS, if invoked, will attempt to extrapolate 
          using up to (NFOCK): 10 stored Fock matrices.

                    Damping( 0%)  Levelshifting(0.5)       DIIS
                  --------------- ------------------- ---------------
          dE  on:    start            ASAP                start   
          dE off:    2 iters        *** iters           *** iters 


      Screening Tolerance Information
      -------------------------------
          Density screening/tol_rho:  1.00D-10
          AO Gaussian exp screening on grid/accAOfunc:  14
          CD Gaussian exp screening on grid/accCDfunc:  20
          XC Gaussian exp screening on grid/accXCfunc:  20
          Schwarz screening/accCoul:  1.00D-08



                            NWChem DFT Gradient Module
                            --------------------------


                               Molecule conformer 0



  charge          =   0.00
  wavefunction    = closed shell

  Using symmetry


                         DFT ENERGY GRADIENTS

    atom               coordinates                        gradient
                 x          y          z           x          y          z
   1 C      -2.156752   2.425360   0.000000   -0.000928   0.000357   0.000000
   2 C       0.257521   0.919657   0.000000    0.005512  -0.001800   0.000000
   3 C       2.598028   1.788323   0.000000   -0.004363  -0.001187   0.000000
   4 Cl     -0.235387  -2.541492   0.000000   -0.000344   0.001917   0.000000
   5 H      -3.803934   1.202890   0.000000    0.000553  -0.000040   0.000000
   6 H      -2.259588   3.631496   1.671854   -0.000011   0.000186   0.000380
   7 H      -2.259588   3.631496  -1.671854   -0.000011   0.000186  -0.000380
   8 H       2.923253   3.810205   0.000000   -0.000126   0.000244   0.000000
   9 H       4.232701   0.571584   0.000000   -0.000281   0.000138   0.000000

                 ----------------------------------------
                 |  Time  |  1-e(secs)   |  2-e(secs)   |
                 ----------------------------------------
                 |  CPU   |       0.00   |       0.10   |
                 ----------------------------------------
                 |  WALL  |       0.00   |       0.10   |
                 ----------------------------------------
  no constraints, skipping    0.0000000000000000     

  Step       Energy      Delta E   Gmax     Grms     Xrms     Xmax   Walltime
  ---- ---------------- -------- -------- -------- -------- -------- --------
@    2    -579.74078486 -7.1D-04  0.00475  0.00097  0.01518  0.03939    114.3
[...]
dia1(k,t,iat1,ispin)=(  2,  3,  8,  1)=(    -0.00075529,    -0.00075529) ppm
dia1(k,t,iat1,ispin)=(  3,  1,  8,  1)=(     0.00113843,     0.00113843) ppm
dia1(k,t,iat1,ispin)=(  3,  2,  8,  1)=(     0.00042423,     0.00042423) ppm
dia1(k,t,iat1,ispin)=(  3,  3,  8,  1)=(    16.14767040,    16.14767040) ppm
(dia2,par1)(k,t,iat1,spin)=(  1,  1,  8,  1)=(     5.80659781,     5.80659781,     0.37756406,     0.37756406) ppm
(dia2,par1)(k,t,iat1,spin)=(  2,  1,  8,  1)=(    -0.81464521,    -0.81464521,     0.42637802,     0.42637802) ppm
(dia2,par1)(k,t,iat1,spin)=(  3,  1,  8,  1)=(    -0.00052201,    -0.00052201,    -0.00034197,    -0.00034197) ppm
(dia2,par1)(k,t,iat1,spin)=(  1,  2,  8,  1)=(    -1.37485235,    -1.37485235,    -1.31195072,    -1.31195072) ppm
(dia2,par1)(k,t,iat1,spin)=(  2,  2,  8,  1)=(     0.11555563,     0.11555563,    -0.93795654,    -0.93795654) ppm
(dia2,par1)(k,t,iat1,spin)=(  3,  2,  8,  1)=(     0.00210864,     0.00210864,     0.00100514,     0.00100514) ppm
(dia2,par1)(k,t,iat1,spin)=(  1,  3,  8,  1)=(     0.00000041,     0.00000041,     0.00000004,     0.00000004) ppm
(dia2,par1)(k,t,iat1,spin)=(  2,  3,  8,  1)=(    -0.00080138,    -0.00080138,    -0.00018861,    -0.00018861) ppm
(dia2,par1)(k,t,iat1,spin)=(  3,  3,  8,  1)=(     5.80435512,     5.80435512,     1.19917113,     1.19917113) ppm
dia1(k,t,iat1,ispin)=(  1,  1,  9,  1)=(    37.08949562,    37.08949562) ppm
dia1(k,t,iat1,ispin)=(  1,  2,  9,  1)=(    -8.34192467,    -8.34192467) ppm
dia1(k,t,iat1,ispin)=(  1,  3,  9,  1)=(    -0.00118351,    -0.00118351) ppm
dia1(k,t,iat1,ispin)=(  2,  1,  9,  1)=(    -7.64574751,    -7.64574751) ppm
dia1(k,t,iat1,ispin)=(  2,  2,  9,  1)=(    24.97244867,    24.97244867) ppm
dia1(k,t,iat1,ispin)=(  2,  3,  9,  1)=(    -0.00125667,    -0.00125667) ppm
dia1(k,t,iat1,ispin)=(  3,  1,  9,  1)=(     0.00139273,     0.00139273) ppm
dia1(k,t,iat1,ispin)=(  3,  2,  9,  1)=(     0.00024880,     0.00024880) ppm
dia1(k,t,iat1,ispin)=(  3,  3,  9,  1)=(    15.12767129,    15.12767129) ppm
(dia2,par1)(k,t,iat1,spin)=(  1,  1,  9,  1)=(     1.52227185,     1.52227185,    -0.17272179,    -0.17272179) ppm
(dia2,par1)(k,t,iat1,spin)=(  2,  1,  9,  1)=(     3.23908706,     3.23908706,    -0.10799750,    -0.10799750) ppm
(dia2,par1)(k,t,iat1,spin)=(  3,  1,  9,  1)=(     0.00025967,     0.00025967,    -0.00125077,    -0.00125077) ppm
(dia2,par1)(k,t,iat1,spin)=(  1,  2,  9,  1)=(     3.30889490,     3.30889490,    -0.61495289,    -0.61495289) ppm
(dia2,par1)(k,t,iat1,spin)=(  2,  2,  9,  1)=(     3.95784440,     3.95784440,    -0.44222811,    -0.44222811) ppm
(dia2,par1)(k,t,iat1,spin)=(  3,  2,  9,  1)=(     0.00001542,     0.00001542,     0.00166973,     0.00166973) ppm
(dia2,par1)(k,t,iat1,spin)=(  1,  3,  9,  1)=(    -0.00293779,    -0.00293779,    -0.00007363,    -0.00007363) ppm
(dia2,par1)(k,t,iat1,spin)=(  2,  3,  9,  1)=(     0.00035183,     0.00035183,    -0.00007868,    -0.00007868) ppm
(dia2,par1)(k,t,iat1,spin)=(  3,  3,  9,  1)=(     6.02630916,     6.02630916,    -0.73629931,    -0.73629931) ppm

 Wrote ZORA NMR data to ./CC(=C)Cl_mol_3_conformer_0.zora_nmrcs

(nogshift,skip_gshiftAOev,done_Fji)=( 1,F,T)


         Total DFT energy =     -579.746116641661
      One electron energy =    -1083.869130822510
           Coulomb energy =      404.775481861481
    Exchange-Corr. energy =      -46.478632755927
 Nuclear repulsion energy =      145.575766695479

             COSMO energy =        0.250398379816

       Scaling correction =        0.810205793358

 Numeric. integr. density =       40.000001334117

     Total iterative time =     55.1s


                                   COSMO solvation results
                                   -----------------------

                 gas phase energy =      -579.740921233212
                 sol phase energy =      -579.746116641661
 (electrostatic) solvation energy =         0.005195408449 (    3.26 kcal/mol)

 center of mass
 --------------
 x =  -0.00892114 y =  -0.18910161 z =   0.00000000

 moments of inertia (a.u.)
 ------------------
         392.291884706055          -8.075188266456           0.000000000000
          -8.075188266456         197.406483327481           0.000000000000
           0.000000000000           0.000000000000         578.455297150390

            Scalar ZORA NMR Shielding
            -------------------------


          -----------------------------------------
          Chemical Shielding Tensors (GIAO, in ppm)
          -----------------------------------------


 Read ZORA NMR data from ./CC(=C)Cl_mol_3_conformer_0.zora_nmrcs

    0 giaofock schwarz done =      81.79%
    0 giaofock schwarz done =      79.96%
                                NWChem CPHF Module
                                ------------------



 solvent parameters
 solvname_short: cdcl3   
 solvname_long:  unknown                            
 dielec:       78.4000
 dielecinf:     1.7769

          ---------------
          -cosmo- solvent
          ---------------
 Cosmo: York-Karplus, doi: 10.1021/jp992097l
 dielectric constant -eps-     =  78.40
 screen = (eps-1)/(eps    )    =   0.98724
 surface charge correction     = lagrangian
 -lineq- algorithm             =   0
 -bem- low  level              =   2
 -bem- from -octahedral-
 gaussian surface charge width =   0.98000
 degree of switching           =   1.00000
 switching function tolerance  =   0.00010
 atomic radii = 
 --------------
    1  6.000  2.000
    2  6.000  2.000
    3  6.000  2.000
    4 17.000  2.050
    5  1.000  1.300
    6  1.000  1.300
    7  1.000  1.300
    8  1.000  1.300
    9  1.000  1.300

 solvent accessible surface
 --------------------------

 ---------- ATOMIC COORDINATES (A.U.) ------------ VDWR(ANG.) --
     1   -2.16252534    2.42582232    0.00000000     2.000
     2    0.25234504    0.93114458    0.00000000     2.000
     3    2.60417596    1.79011835    0.00000000     2.000
     4   -0.22370778   -2.54736793    0.00000000     2.050
     5   -3.81089361    1.20303192    0.00000000     1.300
     6   -2.26841169    3.63245641    1.67001324     1.300
     7   -2.26841169    3.63245641   -1.67001324     1.300
     8    2.94236853    3.80940751    0.00000000     1.300
     9    4.23131394    0.56245031    0.00000000     1.300
 number of segments per atom =         32
 number of   points per atom =         32
 atom (   nspa,  nppa )
 ----------------------
    1 (     18,     0 )       0
    2 (     10,     0 )       0
    3 (     20,     0 )       0
    4 (     26,     0 )       0
    5 (     12,     0 )       0
    6 (     15,     0 )       0
    7 (     15,     0 )       0
    8 (     14,     0 )       0
    9 (     14,     0 )       0
 number of -cosmo- surface points =      144
 molecular surface =    115.066 angstrom**2
 molecular volume  =     70.269 angstrom**3
 G(cav/disp)       =      1.435 kcal/mol
 ...... end of -cosmo- initialization ......


  scftype          =     RHF 
  nclosed          =       20
  nopen            =        0
  variables        =     1100
  # of vectors     =        3
  tolerance        = 0.10D-03
  level shift      = 0.00D+00
  max iterations   =       50
  max subspace     =       30

 SCF residual:    1.6681966583366201E-005


Iterative solution of linear equations
  No. of variables     1100
  No. of equations        3
  Maximum subspace       30
        Iterations       50
       Convergence  1.0D-04
        Start time   1018.3


   iter   nsub   residual    time
   ----  ------  --------  ---------
     1      3    4.90D-01    1021.1
     2      6    2.40D-02    1023.7
     3      9    1.79D-03    1027.2
     4     12    5.59D-05    1030.2

 Wrote CPHF data to ./CC(=C)Cl_mol_3_conformer_0.shieldcphf

 Calc. par tensor-> zora
      Atom:    1  H 
        Diamagnetic
     36.8412      2.5889      0.0018
      2.5889     29.2516     -0.0012
      0.0018     -0.0012     21.7188

        Paramagnetic
     -1.3055     -2.1249     -0.0021
     -2.1249      2.1646      0.0020
     -0.0021      0.0020      4.6928

        Total Shielding Tensor
     35.5357      0.4639     -0.0003
      0.4639     31.4162      0.0008
     -0.0003      0.0008     26.4116

           isotropic =      31.1212
          anisotropy =       6.6992

          Principal Components and Axis System
                 1           2           3
               35.5873     31.3646     26.4116

      1         0.9939     -0.1105      0.0000
      2         0.1105      0.9939     -0.0002
      3        -0.0000      0.0002      1.0000



      Atom:    2  H 
        Diamagnetic
     26.4468     -3.5952     -2.1550
     -3.5952     30.7540      7.7150
     -2.1550      7.7150     31.0504

        Paramagnetic
      3.1534      1.2155      0.9867
      1.2155      0.2188     -3.6825
      0.9867     -3.6825     -1.1954

        Total Shielding Tensor
     29.6002     -2.3796     -1.1683
     -2.3796     30.9728      4.0324
     -1.1683      4.0324     29.8551

           isotropic =      30.1427
          anisotropy =       8.1707

          Principal Components and Axis System
                 1           2           3
               35.5899     28.6712     26.1671

      1        -0.3959      0.8839     -0.2490
      2         0.7113      0.1237     -0.6919
      3         0.5808      0.4510      0.6777



      Atom:    3  H 
        Diamagnetic
     26.4483     -3.5956      2.1565
     -3.5956     30.7562     -7.7166
      2.1565     -7.7166     31.0523

        Paramagnetic
      3.1564      1.2148     -0.9882
      1.2148      0.2206      3.6849
     -0.9882      3.6849     -1.1956

        Total Shielding Tensor
     29.6047     -2.3808      1.1683
     -2.3808     30.9768     -4.0317
      1.1683     -4.0317     29.8567

           isotropic =      30.1461
          anisotropy =       8.1707

          Principal Components and Axis System
                 1           2           3
               35.5932     28.6747     26.1703

      1        -0.3961      0.8838      0.2491
      2         0.7113      0.1238      0.6919
      3        -0.5806     -0.4512      0.6777



      Atom:    4  H 
        Diamagnetic
     28.2524      5.2986     -0.0000
      5.2986     39.8958      0.0005
     -0.0000      0.0005     21.9520

        Paramagnetic
      1.3615     -2.6964     -0.0002
     -2.6964    -14.2970     -0.0011
     -0.0002     -0.0011      3.8975

        Total Shielding Tensor
     29.6140      2.6022     -0.0002
      2.6022     25.5988     -0.0006
     -0.0002     -0.0006     25.8495

           isotropic =      27.0208
          anisotropy =       5.8084

          Principal Components and Axis System
                 1           2           3
               30.8930     25.8495     24.3198

      1         0.8975      0.0002     -0.4411
      2         0.4411     -0.0002      0.8975
      3        -0.0001      1.0000      0.0003



      Atom:    5  H 
        Diamagnetic
     38.6118     -4.7198     -0.0012
     -4.7198     28.9303     -0.0003
     -0.0012     -0.0003     21.1540

        Paramagnetic
     -7.4549      6.9263      0.0014
      6.9263     -4.2855      0.0002
      0.0014      0.0002      4.6487

        Total Shielding Tensor
     31.1569      2.2064      0.0001
      2.2064     24.6448     -0.0002
      0.0001     -0.0002     25.8026

           isotropic =      27.2014
          anisotropy =       6.9489

          Principal Components and Axis System
                 1           2           3
               31.8340     25.8026     23.9677

      1         0.9560      0.0000     -0.2934
      2         0.2934     -0.0001      0.9560
      3         0.0000      1.0000      0.0001




 Task  times  cpu:       83.7s     wall:       80.6s


                                NWChem Input Module
                                -------------------


 Summary of allocated global arrays
-----------------------------------
  array 0 => double precision sf 1(75,75),  handle: -987 
  array 1 => double precision sf 1(75,75),  handle: -986 
  array 2 => double precision sf 1(75,75),  handle: -985 
  array 3 => double precision sf 1(75,75),  handle: -984 
  array 4 => double precision sf 1(75,75),  handle: -983 
  array 5 => double precision sf 1(75,75),  handle: -982 
  array 6 => double precision sf 1(75,75),  handle: -981 
  array 7 => double precision sf 1(75,75),  handle: -980 
  array 8 => double precision sf 1(75,75),  handle: -979 
  array 9 => double precision sf 1(75,75),  handle: -978 
  array 10 => double precision sf 1(75,75),  handle: -977 
  array 11 => double precision sf 1(75,75),  handle: -976 
  array 12 => double precision sf 1(75,75),  handle: -975 
  array 13 => double precision sf 1(75,75),  handle: -974 
  array 14 => double precision sf 1(75,75),  handle: -973 
  array 15 => double precision sf 1(75,75),  handle: -972 
  array 16 => double precision sf 1(75,75),  handle: -971 
  array 17 => double precision sf 1(75,75),  handle: -970 
  array 18 => double precision sf 1(75,75),  handle: -969 
  array 19 => double precision sf 1(75,75),  handle: -968 
  array 20 => double precision sf 1(75,75),  handle: -967 
  array 21 => double precision sf 1(75,75),  handle: -966 
  array 22 => double precision sf 1(75,75),  handle: -965 
  array 23 => double precision sf 1(75,75),  handle: -964 
  array 24 => double precision sf 1(75,75),  handle: -963 
  array 25 => double precision sf 1(75,75),  handle: -962 
  array 26 => double precision sf 1(75,75),  handle: -961 
  array 27 => double precision sf 1(75,75),  handle: -960 
  array 28 => double precision sf 1(75,75),  handle: -959 
  array 29 => double precision sf 1(75,75),  handle: -958 
  array 30 => double precision sf 1(75,75),  handle: -957 
  array 31 => double precision sf 1(75,75),  handle: -956 
  array 32 => double precision sf 1(75,75),  handle: -955 
  array 33 => double precision sf 1(75,75),  handle: -954 
  array 34 => double precision sf 1(75,75),  handle: -953 
  array 35 => double precision sf 1(75,75),  handle: -952 
  array 36 => double precision sf 1(75,75),  handle: -951 
  array 37 => double precision sf 1(75,75),  handle: -950 
  array 38 => double precision sf 1(75,75),  handle: -949 
  array 39 => double precision sf 1(75,75),  handle: -948 
  array 40 => double precision sf 1(75,75),  handle: -947 
  array 41 => double precision sf 1(75,75),  handle: -946 
  array 42 => double precision sf 1(75,75),  handle: -945 
  array 43 => double precision sf 1(75,75),  handle: -944 
  array 44 => double precision sf 1(75,75),  handle: -943 
  array 45 => double precision sf 1(75,75),  handle: -942 
  array 46 => double precision sf 1(75,75),  handle: -941 
  array 47 => double precision sf 1(75,75),  handle: -940 
  array 48 => double precision sf 1(75,75),  handle: -939 
  array 49 => double precision sf 1(75,75),  handle: -938 
  array 50 => double precision sf 1(75,75),  handle: -937 
  array 51 => double precision sf 1(75,75),  handle: -936 
  array 52 => double precision sf 1(75,75),  handle: -935 
  array 53 => double precision sf 1(75,75),  handle: -934 
  array 54 => double precision sf 1(75,75),  handle: -933 
  array 55 => double precision sf 1(75,75),  handle: -932 
  array 56 => double precision sf 1(75,75),  handle: -931 



                         GA Statistics for process    0
                         ------------------------------

       create   destroy   get      put      acc     scatter   gather  read&inc
calls: 8660     8298     3.11e+05 5.33e+04 7.94e+04   60        0     1.03e+04 
number of processes/call 0.00e+00 0.00e+00 0.00e+00 0.00e+00 0.00e+00
bytes total:             4.04e+08 5.82e+07 3.38e+08 4.48e+02 0.00e+00 8.22e+04
bytes remote:            3.58e+08 4.99e+07 3.10e+08 -2.24e+02 0.00e+00 0.00e+00
Max memory consumed for GA by this process: 660432 bytes

MA_summarize_allocated_blocks: starting scan ...
MA_summarize_allocated_blocks: scan completed: 0 heap blocks, 0 stack blocks
MA usage statistics:

	allocation statistics:
					      heap	     stack
					      ----	     -----
	current number of blocks	         0	         0
	maximum number of blocks	        66	        59
	current total bytes		         0	         0
	maximum total bytes		   2300760	  24872392
	maximum total K-bytes		      2301	     24873
	maximum total M-bytes		         3	        25


                                     CITATION
                                     --------
                Please cite the following reference when publishing
                           results obtained with NWChem:

          E. Apr, E. J. Bylaska, W. A. de Jong, N. Govind, K. Kowalski,
       T. P. Straatsma, M. Valiev, H. J. J. van Dam, Y. Alexeev, J. Anchell,
       V. Anisimov, F. W. Aquino, R. Atta-Fynn, J. Autschbach, N. P. Bauman,
     J. C. Becca, D. E. Bernholdt, K. Bhaskaran-Nair, S. Bogatko, P. Borowski,
        J. Boschen, J. Brabec, A. Bruner, E. Caut, Y. Chen, G. N. Chuev,
      C. J. Cramer, J. Daily, M. J. O. Deegan, T. H. Dunning Jr., M. Dupuis,
   K. G. Dyall, G. I. Fann, S. A. Fischer, A. Fonari, H. Frchtl, L. Gagliardi,
      J. Garza, N. Gawande, S. Ghosh, K. Glaesemann, A. W. Gtz, J. Hammond,
       V. Helms, E. D. Hermes, K. Hirao, S. Hirata, M. Jacquelin, L. Jensen,
   B. G. Johnson, H. Jnsson, R. A. Kendall, M. Klemm, R. Kobayashi, V. Konkov,
      S. Krishnamoorthy, M. Krishnan, Z. Lin, R. D. Lins, R. J. Littlefield,
      A. J. Logsdail, K. Lopata, W. Ma, A. V. Marenich, J. Martin del Campo,
   D. Mejia-Rodriguez, J. E. Moore, J. M. Mullin, T. Nakajima, D. R. Nascimento,
    J. A. Nichols, P. J. Nichols, J. Nieplocha, A. Otero-de-la-Roza, B. Palmer,
    A. Panyala, T. Pirojsirikul, B. Peng, R. Peverati, J. Pittner, L. Pollack,
   R. M. Richard, P. Sadayappan, G. C. Schatz, W. A. Shelton, D. W. Silverstein,
   D. M. A. Smith, T. A. Soares, D. Song, M. Swart, H. L. Taylor, G. S. Thomas,
            V. Tipparaju, D. G. Truhlar, K. Tsemekhman, T. Van Voorhis,
     . Vzquez-Mayagoitia, P. Verma, O. Villa, A. Vishnu, K. D. Vogiatzis,
        D. Wang, J. H. Weare, M. J. Williamson, T. L. Windus, K. Woliski,
        A. T. Wong, Q. Wu, C. Yang, Q. Yu, M. Zacharias, Z. Zhang, Y. Zhao,
                                and R. J. Harrison
                        "NWChem: Past, present, and future
                         J. Chem. Phys. 152, 184102 (2020)
                               doi:10.1063/5.0004997

                                      AUTHORS
                                      -------
     E. Apra, E. J. Bylaska, N. Govind, K. Kowalski, M. Valiev, W. A. de Jong,
      T. P. Straatsma, H. J. J. van Dam, D. Wang, T. L. Windus, N. P. Bauman,
       A. Panyala, J. Hammond, J. Autschbach, K. Bhaskaran-Nair, J. Brabec,
    K. Lopata, S. A. Fischer, S. Krishnamoorthy, M. Jacquelin, W. Ma, M. Klemm,
       O. Villa, Y. Chen, V. Anisimov, F. Aquino, S. Hirata, M. T. Hackler,
           Eric Hermes, L. Jensen, J. E. Moore, J. C. Becca, V. Konjkov,
            D. Mejia-Rodriguez, T. Risthaus, M. Malagoli, A. Marenich,
   A. Otero-de-la-Roza, J. Mullin, P. Nichols, R. Peverati, J. Pittner, Y. Zhao,
        P.-D. Fan, A. Fonari, M. J. Williamson, R. J. Harrison, J. R. Rehr,
      M. Dupuis, D. Silverstein, D. M. A. Smith, J. Nieplocha, V. Tipparaju,
      M. Krishnan, B. E. Van Kuiken, A. Vazquez-Mayagoitia, M. Swart, Q. Wu,
   T. Van Voorhis, A. A. Auer, M. Nooijen, L. D. Crosby, E. Brown, G. Cisneros,
     G. I. Fann, H. Fruchtl, J. Garza, K. Hirao, R. A. Kendall, J. A. Nichols,
       K. Tsemekhman, K. Wolinski, J. Anchell, D. E. Bernholdt, P. Borowski,
       T. Clark, D. Clerc, H. Dachsel, M. J. O. Deegan, K. Dyall, D. Elwood,
      E. Glendening, M. Gutowski, A. C. Hess, J. Jaffe, B. G. Johnson, J. Ju,
        R. Kobayashi, R. Kutteh, Z. Lin, R. Littlefield, X. Long, B. Meng,
      T. Nakajima, S. Niu, L. Pollack, M. Rosing, K. Glaesemann, G. Sandrone,
      M. Stave, H. Taylor, G. Thomas, J. H. van Lenthe, A. T. Wong, Z. Zhang.

 Total times  cpu:     1059.6s     wall:     1030.5s
