 argument  1 = CC(=C)Cl_mol_7_conformer_0.nw



============================== echo of input deck ==============================
start

title "Molecule conformer 0"

memory total 4000 mb

echo
geometry units angstroms
   C     -1.1364     0.0497    -0.0499
   C      0.3219     0.3968    -0.0748
   C      1.2486    -0.5369     0.1593
   Cl     0.8194     2.0495    -0.4156
   H     -1.7511     0.9485    -0.2657
   H     -1.3540    -0.7227    -0.8176
   H     -1.4150    -0.3394     0.9522
   H      2.3035    -0.2825     0.1405
   H      0.9632    -1.5630     0.3716
end


basis spherical
* library 6-311G
end

driver
  maxiter 500
  xyz final
end

relativistic
  zora on
  zora:cutoff_NMR 1d-8
  zora:cutoff 1d-30
end

dft
  direct
  grid fine
  xc B3LYP
  mult 1
  maxiter 1500
  noprint "final vectors analysis" multipole
end

task dft optimize

task dft freq

property
  shielding 5 5 6 7 8 9
end

cosmo
   solvent cdcl3
end

task dft property
================================================================================


                                         
                                         


             Northwest Computational Chemistry Package (NWChem) 7.0.2
             --------------------------------------------------------


                    Environmental Molecular Sciences Laboratory
                       Pacific Northwest National Laboratory
                                Richland, WA 99352

                              Copyright (c) 1994-2020
                       Pacific Northwest National Laboratory
                            Battelle Memorial Institute

             NWChem is an open-source computational chemistry package
                        distributed under the terms of the
                      Educational Community License (ECL) 2.0
             A copy of the license is included with this distribution
                              in the LICENSE.TXT file

                                  ACKNOWLEDGMENT
                                  --------------

            This software and its documentation were developed at the
            EMSL at Pacific Northwest National Laboratory, a multiprogram
            national laboratory, operated for the U.S. Department of Energy
            by Battelle under Contract Number DE-AC05-76RL01830. Support
            for this work was provided by the Department of Energy Office
            of Biological and Environmental Research, Office of Basic
            Energy Sciences, and the Office of Advanced Scientific Computing.


           Job information
           ---------------

    hostname        = ponder
    program         = nwchem
    date            = Tue Aug  6 13:04:46 2024

    compiled        = Sat_Apr_09_17:12:10_2022
    source          = /build/nwchem-f1f4gx/nwchem-7.0.2/build-openmpi
    nwchem branch   = 7.0.2
    nwchem revision = N/A
    ga revision     = 5.8.1
    use scalapack   = T
    input           = CC(=C)Cl_mol_7_conformer_0.nw
    prefix          = CC(=C)Cl_mol_7_conformer_0.
    data base       = ./CC(=C)Cl_mol_7_conformer_0.db
    status          = startup
    nproc           =       40
    time left       =     -1s



           Memory information
           ------------------

    heap     =  131071996 doubles =   1000.0 Mbytes
    stack    =  131072001 doubles =   1000.0 Mbytes
    global   =  262144000 doubles =   2000.0 Mbytes (distinct from heap & stack)
    total    =  524287997 doubles =   4000.0 Mbytes
    verify   = yes
    hardfail = no 


           Directory information
           ---------------------

  0 permanent = .
  0 scratch   = .




                                NWChem Input Module
                                -------------------


                               Molecule conformer 0
                               --------------------

 Scaling coordinates for geometry "geometry" by  1.889725989
 (inverse scale =  0.529177249)

 CS  symmetry detected

          ------
          auto-z
          ------
  no constraints, skipping    0.0000000000000000     
  no constraints, skipping    0.0000000000000000     


                             Geometry "geometry" -> ""
                             -------------------------

 Output coordinates in angstroms (scale by  1.889725989 to convert to a.u.)

  No.       Tag          Charge          X              Y              Z
 ---- ---------------- ---------- -------------- -------------- --------------
    1 C                    6.0000    -1.11605354    -1.28388620     0.00000000
    2 C                    6.0000     0.10376357    -0.41223058     0.00000000
    3 C                    6.0000     1.32637758    -0.95129122     0.00000000
    4 Cl                  17.0000    -0.07488423     1.33795602     0.00000000
    5 H                    1.0000    -2.03537414    -0.66169909     0.00000000
    6 H                    1.0000    -1.12133967    -1.92617279    -0.90592935
    7 H                    1.0000    -1.12133967    -1.92617279     0.90592935
    8 H                    1.0000     2.20747144    -0.31760327     0.00000000
    9 H                    1.0000     1.45908838    -2.02915647     0.00000000

      Atomic Mass 
      ----------- 

      C                 12.000000
      Cl                34.968850
      H                  1.007825


 Effective nuclear repulsion energy (a.u.)     147.8103567045

            Nuclear Dipole moment (a.u.) 
            ----------------------------
        X                 Y               Z
 ---------------- ---------------- ----------------
     0.0000000000    -0.0000000000     0.0000000000

      Symmetry information
      --------------------

 Group name             Cs        
 Group number              2
 Group order               2
 No. of unique centers     8

      Symmetry unique atoms

     1    2    3    4    5    6    8    9



                                Z-matrix (autoz)
                                -------- 

 Units are Angstrom for bonds and degrees for angles

      Type          Name      I     J     K     L     M      Value
      ----------- --------  ----- ----- ----- ----- ----- ----------
    1 Stretch                  1     2                       1.49925
    2 Stretch                  1     5                       1.11008
    3 Stretch                  1     6                       1.11053
    4 Stretch                  1     7                       1.11053
    5 Stretch                  2     3                       1.33618
    6 Stretch                  2     4                       1.75928
    7 Stretch                  3     8                       1.08530
    8 Stretch                  3     9                       1.08600
    9 Bend                     1     2     3               120.65812
   10 Bend                     1     2     4               119.72060
   11 Bend                     2     1     5               110.36145
   12 Bend                     2     1     6               109.88483
   13 Bend                     2     1     7               109.88483
   14 Bend                     2     3     8               120.48301
   15 Bend                     2     3     9               120.81222
   16 Bend                     3     2     4               119.62128
   17 Bend                     5     1     6               108.67652
   18 Bend                     5     1     7               108.67652
   19 Bend                     6     1     7               109.32634
   20 Bend                     8     3     9               118.70477
   21 Torsion                  1     2     3     8         180.00000
   22 Torsion                  1     2     3     9           0.00000
   23 Torsion                  3     2     1     5         180.00000
   24 Torsion                  3     2     1     6         -60.16793
   25 Torsion                  3     2     1     7          60.16793
   26 Torsion                  4     2     1     5           0.00000
   27 Torsion                  4     2     1     6         119.83207
   28 Torsion                  4     2     1     7        -119.83207
   29 Torsion                  4     2     3     8           0.00000
   30 Torsion                  4     2     3     9         180.00000


            XYZ format geometry
            -------------------
     9
 geometry
 C                    -1.11605354    -1.28388620     0.00000000
 C                     0.10376357    -0.41223058     0.00000000
 C                     1.32637758    -0.95129122     0.00000000
 Cl                   -0.07488423     1.33795602     0.00000000
 H                    -2.03537414    -0.66169909     0.00000000
 H                    -1.12133967    -1.92617279    -0.90592935
 H                    -1.12133967    -1.92617279     0.90592935
 H                     2.20747144    -0.31760327     0.00000000
 H                     1.45908838    -2.02915647     0.00000000

 ==============================================================================
                                internuclear distances
 ------------------------------------------------------------------------------
       center one      |      center two      | atomic units |  angstroms
 ------------------------------------------------------------------------------
    2 C                |   1 C                |     2.83316  |     1.49925
    3 C                |   2 C                |     2.52501  |     1.33618
    4 Cl               |   2 C                |     3.32456  |     1.75928
    5 H                |   1 C                |     2.09774  |     1.11008
    6 H                |   1 C                |     2.09859  |     1.11053
    7 H                |   1 C                |     2.09859  |     1.11053
    8 H                |   3 C                |     2.05093  |     1.08530
    9 H                |   3 C                |     2.05225  |     1.08600
 ------------------------------------------------------------------------------
                         number of included internuclear distances:          8
 ==============================================================================



 ==============================================================================
                                 internuclear angles
 ------------------------------------------------------------------------------
        center 1       |       center 2       |       center 3       |  degrees
 ------------------------------------------------------------------------------
    2 C                |   1 C                |   5 H                |   110.36
    2 C                |   1 C                |   6 H                |   109.88
    2 C                |   1 C                |   7 H                |   109.88
    5 H                |   1 C                |   6 H                |   108.68
    5 H                |   1 C                |   7 H                |   108.68
    6 H                |   1 C                |   7 H                |   109.33
    1 C                |   2 C                |   3 C                |   120.66
    1 C                |   2 C                |   4 Cl               |   119.72
    3 C                |   2 C                |   4 Cl               |   119.62
    2 C                |   3 C                |   8 H                |   120.48
    2 C                |   3 C                |   9 H                |   120.81
    8 H                |   3 C                |   9 H                |   118.70
 ------------------------------------------------------------------------------
                            number of included internuclear angles:         12
 ==============================================================================





 Summary of "ao basis" -> "" (spherical)
 ------------------------------------------------------------------------------
       Tag                 Description            Shells   Functions and Types
 ---------------- ------------------------------  ------  ---------------------
 *                           6-311G                   on all atoms 




                           NWChem Geometry Optimization
                           ----------------------------




                               Molecule conformer 0


  no constraints, skipping    0.0000000000000000     
 maximum gradient threshold         (gmax) =   0.000450
 rms gradient threshold             (grms) =   0.000300
 maximum cartesian step threshold   (xmax) =   0.001800
 rms cartesian step threshold       (xrms) =   0.001200
 fixed trust radius                (trust) =   0.300000
 maximum step size to saddle      (sadstp) =   0.100000
 energy precision                  (eprec) =   5.0D-06
 maximum number of steps          (nptopt) =  500
 initial hessian option           (inhess) =    0
 line search option               (linopt) =    1
 hessian update option            (modupd) =    1
 saddle point option              (modsad) =    0
 initial eigen-mode to follow     (moddir) =    0
 initial variable to follow       (vardir) =    0
 follow first negative mode     (firstneg) =    T
 apply conjugacy                    (opcg) =    F
 source of zmatrix                         =   autoz   


          -------------------
          Energy Minimization
          -------------------


 Names of Z-matrix variables 
    1              2              3              4              5         
    6              7              8              9             10         
   11             12             13             14             15         
   16             17             18             19             20         
   21             22             23             24             25         
   26             27             28             29             30         

 Variables with the same non-blank name are constrained to be equal


 Using diagonal initial Hessian 
 Scaling for Hessian diagonals: bonds = 1.00  angles = 0.25  torsions = 0.10

          --------
          Step   0
          --------


                         Geometry "geometry" -> "geometry"
                         ---------------------------------

 Output coordinates in angstroms (scale by  1.889725989 to convert to a.u.)

  No.       Tag          Charge          X              Y              Z
 ---- ---------------- ---------- -------------- -------------- --------------
    1 C                    6.0000    -1.11605354    -1.28388620     0.00000000
    2 C                    6.0000     0.10376357    -0.41223058     0.00000000
    3 C                    6.0000     1.32637758    -0.95129122     0.00000000
    4 Cl                  17.0000    -0.07488423     1.33795602     0.00000000
    5 H                    1.0000    -2.03537414    -0.66169909     0.00000000
    6 H                    1.0000    -1.12133967    -1.92617279    -0.90592935
    7 H                    1.0000    -1.12133967    -1.92617279     0.90592935
    8 H                    1.0000     2.20747144    -0.31760327     0.00000000
    9 H                    1.0000     1.45908838    -2.02915647     0.00000000

      Atomic Mass 
      ----------- 

      C                 12.000000
      Cl                34.968850
      H                  1.007825


 Effective nuclear repulsion energy (a.u.)     147.8103567045

            Nuclear Dipole moment (a.u.) 
            ----------------------------
        X                 Y               Z
 ---------------- ---------------- ----------------
     0.0000000000    -0.0000000000     0.0000000000

      Symmetry information
      --------------------

 Group name             Cs        
 Group number              2
 Group order               2
 No. of unique centers     8

      Symmetry unique atoms

     1    2    3    4    5    6    8    9


                                 NWChem DFT Module
                                 -----------------


                               Molecule conformer 0


                      Basis "ao basis" -> "ao basis" (spherical)
                      -----
  C (Carbon)
  ----------
            Exponent  Coefficients 
       -------------- ---------------------------------------------------------
  1 S  4.56324000E+03  0.001967
  1 S  6.82024000E+02  0.015231
  1 S  1.54973000E+02  0.076127
  1 S  4.44553000E+01  0.260801
  1 S  1.30290000E+01  0.616462
  1 S  1.82773000E+00  0.221006

  2 S  2.09642000E+01  0.114660
  2 S  4.80331000E+00  0.919999
  2 S  1.45933000E+00 -0.003031

  3 P  2.09642000E+01  0.040249
  3 P  4.80331000E+00  0.237594
  3 P  1.45933000E+00  0.815854

  4 S  4.83456000E-01  1.000000

  5 P  4.83456000E-01  1.000000

  6 S  1.45585000E-01  1.000000

  7 P  1.45585000E-01  1.000000

  Cl (Chlorine)
  -------------
            Exponent  Coefficients 
       -------------- ---------------------------------------------------------
  1 S  1.05819000E+05  0.000738
  1 S  1.58720000E+04  0.005718
  1 S  3.61965000E+03  0.029495
  1 S  1.03080000E+03  0.117286
  1 S  3.39908000E+02  0.362949
  1 S  1.24538000E+02  0.584149

  2 S  1.24538000E+02  0.134177
  2 S  4.95135000E+01  0.624250
  2 S  2.08056000E+01  0.291756

  3 S  6.58346000E+00  1.000000

  4 S  2.56468000E+00  1.000000

  5 S  5.59763000E-01  1.000000

  6 S  1.83273000E-01  1.000000

  7 P  5.89776000E+02  0.002391
  7 P  1.39849000E+02  0.018504
  7 P  4.51413000E+01  0.081377
  7 P  1.68733000E+01  0.221552
  7 P  6.74110000E+00  0.772569

  8 P  6.74110000E+00 -1.572244
  8 P  2.77152000E+00  0.992389

  9 P  1.02387000E+00  1.000000

 10 P  3.81368000E-01  1.000000

 11 P  1.09437000E-01  1.000000

  H (Hydrogen)
  ------------
            Exponent  Coefficients 
       -------------- ---------------------------------------------------------
  1 S  3.38650000E+01  0.025494
  1 S  5.09479000E+00  0.190373
  1 S  1.15879000E+00  0.852161

  2 S  3.25840000E-01  1.000000

  3 S  1.02741000E-01  1.000000



 Summary of "ao basis" -> "ao basis" (spherical)
 ------------------------------------------------------------------------------
       Tag                 Description            Shells   Functions and Types
 ---------------- ------------------------------  ------  ---------------------
 C                           6-311G                  7       13   4s3p
 Cl                          6-311G                 11       21   6s5p
 H                           6-311G                  3        3   3s




 Summary of "ao basis" -> "ao basis" (spherical)
 ------------------------------------------------------------------------------
       Tag                 Description            Shells   Functions and Types
 ---------------- ------------------------------  ------  ---------------------
 C                           6-311G                  7       13   4s3p
 Cl                          6-311G                 11       21   6s5p
 H                           6-311G                  3        3   3s


      Symmetry analysis of basis
      --------------------------

        a'         58
        a"         17

  Caching 1-el integrals 

            General Information
            -------------------
          SCF calculation type: DFT
          Wavefunction type:  closed shell.
          No. of atoms     :     9
          No. of electrons :    40
           Alpha electrons :    20
            Beta electrons :    20
          Charge           :     0
          Spin multiplicity:     1
          Use of symmetry is: on ; symmetry adaption is: on 
          Maximum number of iterations: ***
          This is a Direct SCF calculation.
          AO basis - number of functions:    75
                     number of shells:    47
          Convergence on energy requested:  1.00D-06
          Convergence on density requested:  1.00D-05
          Convergence on gradient requested:  5.00D-04

              XC Information
              --------------
                         B3LYP Method XC Potential
                     Hartree-Fock (Exact) Exchange  0.200          
                        Slater Exchange Functional  0.800 local    
                    Becke 1988 Exchange Functional  0.720 non-local
              Lee-Yang-Parr Correlation Functional  0.810          
                  VWN I RPA Correlation Functional  0.190 local    

             Grid Information
             ----------------
          Grid used for XC integration:  fine      
          Radial quadrature: Mura-Knowles        
          Angular quadrature: Lebedev. 
          Tag              B.-S. Rad. Rad. Pts. Rad. Cut. Ang. Pts.
          ---              ---------- --------- --------- ---------
          C                   0.70       70          11.0       590
          Cl                  1.00      123          11.0       770
          H                   0.35       60          12.0       590
          Grid pruning is: on 
          Number of quadrature shells:   573
          Spatial weights used:  Erf1

          Convergence Information
          -----------------------
          Convergence aids based upon iterative change in 
          total energy or number of iterations. 
          Levelshifting, if invoked, occurs when the 
          HOMO/LUMO gap drops below (HL_TOL):  1.00D-02
          DIIS, if invoked, will attempt to extrapolate 
          using up to (NFOCK): 10 stored Fock matrices.

                    Damping( 0%)  Levelshifting(0.5)       DIIS
                  --------------- ------------------- ---------------
          dE  on:    start            ASAP                start   
          dE off:    2 iters        *** iters           *** iters 


      Screening Tolerance Information
      -------------------------------
          Density screening/tol_rho:  1.00D-10
          AO Gaussian exp screening on grid/accAOfunc:  14
          CD Gaussian exp screening on grid/accCDfunc:  20
          XC Gaussian exp screening on grid/accXCfunc:  20
          Schwarz screening/accCoul:  1.00D-08

          Performing ZORA calculations
          ----------------------------


      Superposition of Atomic Density Guess
      -------------------------------------

 Sum of atomic energies:        -574.98156165

 Read atomic ZORA corrections from ./CC(=C)Cl_mol_7_conformer_0.zora_sf

 dft_zora_read: failed to open./CC(=C)Cl_mol_7_conformer_0.zora_sf
 Forcing recalculation of ZORA corrections
       Generating atomic ZORA corrections
       ----------------------------------

 In dft_scf:: zora:Knucl= F

 Grid_pts file          = ./CC(=C)Cl_mol_7_conformer_0.gridpts.00
 Record size in doubles =  12289        No. of grid_pts per rec  =   3070
 Max. records in memory =      5        Max. recs in file   =     13486


 Wrote atomic ZORA corrections to ./CC(=C)Cl_mol_7_conformer_0.zora_sf


      Superposition of Atomic Density Guess
      -------------------------------------

 Sum of atomic energies:        -574.98156165

      Non-variational initial energy
      ------------------------------

 Total energy =    -577.070992
 1-e energy   =   -1082.059626
 2-e energy   =     357.178278
 HOMO         =      -0.276818
 LUMO         =       0.026833


      Symmetry analysis of molecular orbitals - initial
      -------------------------------------------------

  Numbering of irreducible representations: 

     1 a'          2 a"      

  Orbital symmetries:

     1 a'          2 a'          3 a'          4 a'          5 a'      
     6 a'          7 a'          8 a"          9 a'         10 a'      
    11 a'         12 a'         13 a'         14 a'         15 a"      
    16 a'         17 a"         18 a'         19 a'         20 a"      
    21 a"         22 a'         23 a'         24 a'         25 a'      
    26 a'         27 a"         28 a'         29 a'         30 a"      

   Time after variat. SCF:      6.4
   Time prior to 1st pass:      6.4

           Memory utilization after 1st SCF pass: 
           Heap Space remaining (MW):      131.01           131006388
          Stack Space remaining (MW):      131.06           131060060

   convergence    iter        energy       DeltaE   RMS-Dens  Diis-err    time
 ---------------- ----- ----------------- --------- --------- ---------  ------
 d= 0,ls=0.0,diis     1   -579.6365809401 -7.27D+02  1.48D-02  3.77D+01     8.9
 d= 0,ls=0.0,diis     2   -579.6387680313 -2.19D-03  2.10D-02  8.01D-01    11.8
 d= 0,ls=0.0,diis     3   -579.4782518482  1.61D-01  1.30D-02  1.80D+00    14.6
 d= 0,ls=0.0,diis     4   -579.7334934669 -2.55D-01  1.49D-03  1.33D-02    17.3
 d= 0,ls=0.0,diis     5   -579.7348925991 -1.40D-03  7.51D-04  3.04D-03    19.9
  Resetting Diis
 d= 0,ls=0.0,diis     6   -579.7352996147 -4.07D-04  9.45D-05  6.32D-05    22.4
 d= 0,ls=0.0,diis     7   -579.7353055445 -5.93D-06  5.21D-05  4.17D-06    25.6
 d= 0,ls=0.0,diis     8   -579.7353052383  3.06D-07  2.59D-05  6.78D-06    28.2
 d= 0,ls=0.0,diis     9   -579.7353060948 -8.57D-07  4.06D-06  2.29D-07    30.8
(nogshift,skip_gshiftAOev,done_Fji)=( 1,F,F)


         Total DFT energy =     -579.735306094846
      One electron energy =    -1087.837982520645
           Coulomb energy =      406.774851689366
    Exchange-Corr. energy =      -46.482531968049
 Nuclear repulsion energy =      147.810356704483

       Scaling correction =        0.810184716811

 Numeric. integr. density =       40.000000526817

     Total iterative time =     24.5s



                  Occupations of the irreducible representations
                  ----------------------------------------------

                     irrep           alpha         beta
                     --------     --------     --------
                     a'               16.0         16.0
                     a"                4.0          4.0


 center of mass
 --------------
 x =   0.01328033 y =   0.20146834 z =   0.00000000

 moments of inertia (a.u.)
 ------------------
         386.528446483630          -0.000000001494           0.000000000000
          -0.000000001494         184.982363019910           0.000000000000
           0.000000000000           0.000000000000         559.695871494208

            General Information
            -------------------
          SCF calculation type: DFT
          Wavefunction type:  closed shell.
          No. of atoms     :     9
          No. of electrons :    40
           Alpha electrons :    20
            Beta electrons :    20
          Charge           :     0
          Spin multiplicity:     1
          Use of symmetry is: on ; symmetry adaption is: on 
          Maximum number of iterations: ***
          This is a Direct SCF calculation.
          AO basis - number of functions:    75
                     number of shells:    47
          Convergence on energy requested:  1.00D-06
          Convergence on density requested:  1.00D-05
          Convergence on gradient requested:  5.00D-04

              XC Information
              --------------
                         B3LYP Method XC Potential
                     Hartree-Fock (Exact) Exchange  0.200          
                        Slater Exchange Functional  0.800 local    
                    Becke 1988 Exchange Functional  0.720 non-local
              Lee-Yang-Parr Correlation Functional  0.810          
                  VWN I RPA Correlation Functional  0.190 local    

             Grid Information
             ----------------
          Grid used for XC integration:  fine      
          Radial quadrature: Mura-Knowles        
          Angular quadrature: Lebedev. 
          Tag              B.-S. Rad. Rad. Pts. Rad. Cut. Ang. Pts.
          ---              ---------- --------- --------- ---------
          C                   0.70       70          11.0       590
          Cl                  1.00      123          11.0       770
          H                   0.35       60          12.0       590
          Grid pruning is: on 
          Number of quadrature shells:   573
          Spatial weights used:  Erf1

          Convergence Information
          -----------------------
          Convergence aids based upon iterative change in 
          total energy or number of iterations. 
          Levelshifting, if invoked, occurs when the 
          HOMO/LUMO gap drops below (HL_TOL):  1.00D-02
          DIIS, if invoked, will attempt to extrapolate 
          using up to (NFOCK): 10 stored Fock matrices.

                    Damping( 0%)  Levelshifting(0.5)       DIIS
                  --------------- ------------------- ---------------
          dE  on:    start            ASAP                start   
          dE off:    2 iters        *** iters           *** iters 


      Screening Tolerance Information
      -------------------------------
          Density screening/tol_rho:  1.00D-10
          AO Gaussian exp screening on grid/accAOfunc:  14
          CD Gaussian exp screening on grid/accCDfunc:  20
          XC Gaussian exp screening on grid/accXCfunc:  20
          Schwarz screening/accCoul:  1.00D-08



                            NWChem DFT Gradient Module
                            --------------------------


                               Molecule conformer 0



  charge          =   0.00
  wavefunction    = closed shell

  Using symmetry


                         DFT ENERGY GRADIENTS

    atom               coordinates                        gradient
                 x          y          z           x          y          z
   1 C      -2.109035  -2.426193   0.000000    0.019165  -0.004678   0.000000
   2 C       0.196085  -0.779003   0.000000   -0.021324   0.044510   0.000000
   3 C       2.506490  -1.797680   0.000000   -0.002253  -0.012888   0.000000
   4 Cl     -0.141511   2.528370   0.000000    0.007626  -0.027420   0.000000
   5 H      -3.846299  -1.250430   0.000000   -0.008474   0.011132   0.000000
   6 H      -2.119025  -3.639939  -1.711958    0.002272  -0.006200  -0.010842
   7 H      -2.119025  -3.639939   1.711958    0.002272  -0.006200   0.010842
   8 H       4.171516  -0.600183   0.000000    0.000260   0.005056   0.000000
   9 H       2.757277  -3.834550   0.000000    0.000456  -0.003311   0.000000

                 ----------------------------------------
                 |  Time  |  1-e(secs)   |  2-e(secs)   |
                 ----------------------------------------
                 |  CPU   |       0.00   |       0.10   |
                 ----------------------------------------
                 |  WALL  |       0.00   |       0.10   |
                 ----------------------------------------
  no constraints, skipping    0.0000000000000000     

@ Step       Energy      Delta E   Gmax     Grms     Xrms     Xmax   Walltime
@ ---- ---------------- -------- -------- -------- -------- -------- --------
@    0    -579.73530609  0.0D+00  0.02805  0.00728  0.00000  0.00000     33.4
                                                                    



                                Z-matrix (autoz)
                                -------- 

 Units are Angstrom for bonds and degrees for angles

      Type          Name      I     J     K     L     M      Value     Gradient
      ----------- --------  ----- ----- ----- ----- ----- ---------- ----------
    1 Stretch                  1     2                       1.49925   -0.00894
    2 Stretch                  1     5                       1.11008    0.01326
    3 Stretch                  1     6                       1.11053    0.01242
    4 Stretch                  1     7                       1.11053    0.01242
    5 Stretch                  2     3                       1.33618    0.00309
    6 Stretch                  2     4                       1.75928   -0.02805
    7 Stretch                  3     8                       1.08530    0.00316
    8 Stretch                  3     9                       1.08600    0.00334
    9 Bend                     1     2     3               120.65812   -0.00955
   10 Bend                     1     2     4               119.72060    0.00900
   11 Bend                     2     1     5               110.36145   -0.00295
   12 Bend                     2     1     6               109.88483   -0.00117
   13 Bend                     2     1     7               109.88483   -0.00117
   14 Bend                     2     3     8               120.48301   -0.00288
   15 Bend                     2     3     9               120.81222    0.00146
   16 Bend                     3     2     4               119.62128    0.00055
   17 Bend                     5     1     6               108.67652    0.00198
   18 Bend                     5     1     7               108.67652    0.00198
   19 Bend                     6     1     7               109.32634    0.00144
   20 Bend                     8     3     9               118.70477    0.00141
   21 Torsion                  1     2     3     8         180.00000    0.00000
   22 Torsion                  1     2     3     9           0.00000   -0.00000
   23 Torsion                  3     2     1     5         180.00000   -0.00000
   24 Torsion                  3     2     1     6         -60.16793   -0.00015
   25 Torsion                  3     2     1     7          60.16793    0.00015
   26 Torsion                  4     2     1     5           0.00000    0.00000
   27 Torsion                  4     2     1     6         119.83207   -0.00015
   28 Torsion                  4     2     1     7        -119.83207    0.00015
   29 Torsion                  4     2     3     8           0.00000   -0.00000
   30 Torsion                  4     2     3     9         180.00000    0.00000

  no constraints, skipping    0.0000000000000000     
  no constraints, skipping    0.0000000000000000     
  no constraints, skipping    0.0000000000000000     
  no constraints, skipping    0.0000000000000000     
  no constraints, skipping    0.0000000000000000     
  no constraints, skipping    0.0000000000000000     
  no constraints, skipping    0.0000000000000000     
  no constraints, skipping    0.0000000000000000     

                                 NWChem DFT Module
                                 -----------------


                               Molecule conformer 0




 Summary of "ao basis" -> "ao basis" (spherical)
 ------------------------------------------------------------------------------
       Tag                 Description            Shells   Functions and Types
 ---------------- ------------------------------  ------  ---------------------
 C                           6-311G                  7       13   4s3p
 Cl                          6-311G                 11       21   6s5p
 H                           6-311G                  3        3   3s


      Symmetry analysis of basis
      --------------------------

        a'         58
        a"         17

  Caching 1-el integrals 

            General Information
            -------------------
          SCF calculation type: DFT
          Wavefunction type:  closed shell.
          No. of atoms     :     9
          No. of electrons :    40
           Alpha electrons :    20
            Beta electrons :    20
          Charge           :     0
          Spin multiplicity:     1
          Use of symmetry is: on ; symmetry adaption is: on 
          Maximum number of iterations: ***
          This is a Direct SCF calculation.
          AO basis - number of functions:    75
                     number of shells:    47
          Convergence on energy requested:  1.00D-06
          Convergence on density requested:  1.00D-05
          Convergence on gradient requested:  5.00D-04

              XC Information
              --------------
                         B3LYP Method XC Potential
                     Hartree-Fock (Exact) Exchange  0.200          
                        Slater Exchange Functional  0.800 local    
                    Becke 1988 Exchange Functional  0.720 non-local
              Lee-Yang-Parr Correlation Functional  0.810          
                  VWN I RPA Correlation Functional  0.190 local    

             Grid Information
             ----------------
          Grid used for XC integration:  fine      
          Radial quadrature: Mura-Knowles        
          Angular quadrature: Lebedev. 
          Tag              B.-S. Rad. Rad. Pts. Rad. Cut. Ang. Pts.
          ---              ---------- --------- --------- ---------
          C                   0.70       70          11.0       590
          Cl                  1.00      123          11.0       770
          H                   0.35       60          12.0       590
          Grid pruning is: on 
          Number of quadrature shells:   573
          Spatial weights used:  Erf1

          Convergence Information
          -----------------------
          Convergence aids based upon iterative change in 
          total energy or number of iterations. 
          Levelshifting, if invoked, occurs when the 
          HOMO/LUMO gap drops below (HL_TOL):  1.00D-02
          DIIS, if invoked, will attempt to extrapolate 
          using up to (NFOCK): 10 stored Fock matrices.

                    Damping( 0%)  Levelshifting(0.5)       DIIS
                  --------------- ------------------- ---------------
          dE  on:    start            ASAP                start   
          dE off:    2 iters        *** iters           *** iters 


      Screening Tolerance Information
      -------------------------------
          Density screening/tol_rho:  1.00D-10
          AO Gaussian exp screening on grid/accAOfunc:  14
          CD Gaussian exp screening on grid/accCDfunc:  20
          XC Gaussian exp screening on grid/accXCfunc:  20
          Schwarz screening/accCoul:  1.00D-08

          Performing ZORA calculations
          ----------------------------


      Superposition of Atomic Density Guess
      -------------------------------------

 Sum of atomic energies:        -574.98156165

 Read atomic ZORA corrections from ./CC(=C)Cl_mol_7_conformer_0.zora_sf

 Forcing recalculation of ZORA corrections
       Generating atomic ZORA corrections
       ----------------------------------

 In dft_scf:: zora:Knucl= F

 Grid_pts file          = ./CC(=C)Cl_mol_7_conformer_0.gridpts.00
 Record size in doubles =  12289        No. of grid_pts per rec  =   3070
 Max. records in memory =      5        Max. recs in file   =     13486


 Wrote atomic ZORA corrections to ./CC(=C)Cl_mol_7_conformer_0.zora_sf


 Loading old vectors from job with title :

Molecule conformer 0


      Symmetry analysis of molecular orbitals - initial
      -------------------------------------------------

  Numbering of irreducible representations: 

     1 a'          2 a"      

  Orbital symmetries:

     1 a'          2 a'          3 a'          4 a'          5 a'      
     6 a'          7 a"          8 a'          9 a'         10 a'      
    11 a'         12 a'         13 a'         14 a'         15 a"      
    16 a'         17 a'         18 a"         19 a'         20 a"      
    21 a"         22 a'         23 a'         24 a'         25 a'      
    26 a'         27 a"         28 a'         29 a'         30 a"      

   Time after variat. SCF:     40.2
   Time prior to 1st pass:     40.2

           Memory utilization after 1st SCF pass: 
           Heap Space remaining (MW):      131.01           131006388
          Stack Space remaining (MW):      131.06           131060060

   convergence    iter        energy       DeltaE   RMS-Dens  Diis-err    time
 ---------------- ----- ----------------- --------- --------- ---------  ------
 d= 0,ls=0.0,diis     1   -579.7378440298 -7.27D+02  2.02D-03  9.18D-03    43.0
 d= 0,ls=0.0,diis     2   -579.7395301611 -1.69D-03  5.75D-04  1.87D-03    45.8
 d= 0,ls=0.0,diis     3   -579.7395506904 -2.05D-05  3.72D-04  1.67D-03    48.1
 d= 0,ls=0.0,diis     4   -579.7397399180 -1.89D-04  1.08D-04  1.38D-04    50.8
 d= 0,ls=0.0,diis     5   -579.7397584540 -1.85D-05  1.61D-05  1.55D-06    53.2
 d= 0,ls=0.0,diis     6   -579.7397586485 -1.95D-07  3.72D-06  2.02D-08    55.3
(nogshift,skip_gshiftAOev,done_Fji)=( 1,F,F)


         Total DFT energy =     -579.739758648528
      One electron energy =    -1085.814025898734
           Coulomb energy =      405.785797832130
    Exchange-Corr. energy =      -46.487811448941
 Nuclear repulsion energy =      146.776280867016

       Scaling correction =        0.810131210683

 Numeric. integr. density =       40.000000527883

     Total iterative time =     15.2s



                  Occupations of the irreducible representations
                  ----------------------------------------------

                     irrep           alpha         beta
                     --------     --------     --------
                     a'               16.0         16.0
                     a"                4.0          4.0


 center of mass
 --------------
 x =  -0.00345059 y =   0.18603990 z =   0.00000000

 moments of inertia (a.u.)
 ------------------
         384.804892372477           6.416045206925           0.000000000000
           6.416045206925         194.463287444088           0.000000000000
           0.000000000000           0.000000000000         567.990945992056
 Line search: 
     step= 1.00 grad=-7.2D-03 hess= 2.7D-03 energy=   -579.739759 mode=downhill
 new step= 1.32                   predicted energy=   -579.740036
  no constraints, skipping    0.0000000000000000     
  no constraints, skipping    0.0000000000000000     
  no constraints, skipping    0.0000000000000000     
  no constraints, skipping    0.0000000000000000     
  no constraints, skipping    0.0000000000000000     
  no constraints, skipping    0.0000000000000000     
  no constraints, skipping    0.0000000000000000     
  no constraints, skipping    0.0000000000000000     

          --------
          Step   1
          --------


                         Geometry "geometry" -> "geometry"
                         ---------------------------------

 Output coordinates in angstroms (scale by  1.889725989 to convert to a.u.)

  No.       Tag          Charge          X              Y              Z
 ---- ---------------- ---------- -------------- -------------- --------------
    1 C                    6.0000    -1.14204629    -1.27911437     0.00000000
    2 C                    6.0000     0.13727511    -0.46711620     0.00000000
    3 C                    6.0000     1.37984137    -0.94737105     0.00000000
    4 Cl                  17.0000    -0.12141234     1.32794324     0.00000000
    5 H                    1.0000    -2.02800378    -0.65748687     0.00000000
    6 H                    1.0000    -1.19508432    -1.91284894    -0.87842966
    7 H                    1.0000    -1.19508432    -1.91284894     0.87842966
    8 H                    1.0000     2.24843268    -0.30724778     0.00000000
    9 H                    1.0000     1.54379161    -2.01416549     0.00000000

      Atomic Mass 
      ----------- 

      C                 12.000000
      Cl                34.968850
      H                  1.007825


 Effective nuclear repulsion energy (a.u.)     146.4751262851

            Nuclear Dipole moment (a.u.) 
            ----------------------------
        X                 Y               Z
 ---------------- ---------------- ----------------
    -0.8306041348    -0.7392090318     0.0000000000

      Symmetry information
      --------------------

 Group name             Cs        
 Group number              2
 Group order               2
 No. of unique centers     8

      Symmetry unique atoms

     1    2    3    4    5    6    8    9


                                 NWChem DFT Module
                                 -----------------


                               Molecule conformer 0




 Summary of "ao basis" -> "ao basis" (spherical)
 ------------------------------------------------------------------------------
       Tag                 Description            Shells   Functions and Types
 ---------------- ------------------------------  ------  ---------------------
 C                           6-311G                  7       13   4s3p
 Cl                          6-311G                 11       21   6s5p
 H                           6-311G                  3        3   3s


      Symmetry analysis of basis
      --------------------------

        a'         58
        a"         17

  Caching 1-el integrals 

            General Information
            -------------------
          SCF calculation type: DFT
          Wavefunction type:  closed shell.
          No. of atoms     :     9
          No. of electrons :    40
           Alpha electrons :    20
            Beta electrons :    20
          Charge           :     0
          Spin multiplicity:     1
          Use of symmetry is: on ; symmetry adaption is: on 
          Maximum number of iterations: ***
          This is a Direct SCF calculation.
          AO basis - number of functions:    75
                     number of shells:    47
          Convergence on energy requested:  1.00D-06
          Convergence on density requested:  1.00D-05
          Convergence on gradient requested:  5.00D-04

              XC Information
              --------------
                         B3LYP Method XC Potential
                     Hartree-Fock (Exact) Exchange  0.200          
                        Slater Exchange Functional  0.800 local    
                    Becke 1988 Exchange Functional  0.720 non-local
              Lee-Yang-Parr Correlation Functional  0.810          
                  VWN I RPA Correlation Functional  0.190 local    

             Grid Information
             ----------------
          Grid used for XC integration:  fine      
          Radial quadrature: Mura-Knowles        
          Angular quadrature: Lebedev. 
          Tag              B.-S. Rad. Rad. Pts. Rad. Cut. Ang. Pts.
          ---              ---------- --------- --------- ---------
          C                   0.70       70          11.0       590
          Cl                  1.00      123          11.0       770
          H                   0.35       60          12.0       590
          Grid pruning is: on 
          Number of quadrature shells:   573
          Spatial weights used:  Erf1

          Convergence Information
          -----------------------
          Convergence aids based upon iterative change in 
          total energy or number of iterations. 
          Levelshifting, if invoked, occurs when the 
          HOMO/LUMO gap drops below (HL_TOL):  1.00D-02
          DIIS, if invoked, will attempt to extrapolate 
          using up to (NFOCK): 10 stored Fock matrices.

                    Damping( 0%)  Levelshifting(0.5)       DIIS
                  --------------- ------------------- ---------------
          dE  on:    start            ASAP                start   
          dE off:    2 iters        *** iters           *** iters 


      Screening Tolerance Information
      -------------------------------
          Density screening/tol_rho:  1.00D-10
          AO Gaussian exp screening on grid/accAOfunc:  14
          CD Gaussian exp screening on grid/accCDfunc:  20
          XC Gaussian exp screening on grid/accXCfunc:  20
          Schwarz screening/accCoul:  1.00D-08

          Performing ZORA calculations
          ----------------------------


      Superposition of Atomic Density Guess
      -------------------------------------

 Sum of atomic energies:        -574.98156165

 Read atomic ZORA corrections from ./CC(=C)Cl_mol_7_conformer_0.zora_sf

 Forcing recalculation of ZORA corrections
       Generating atomic ZORA corrections
       ----------------------------------

 In dft_scf:: zora:Knucl= F

 Grid_pts file          = ./CC(=C)Cl_mol_7_conformer_0.gridpts.00
 Record size in doubles =  12289        No. of grid_pts per rec  =   3070
 Max. records in memory =      5        Max. recs in file   =     13476


 Wrote atomic ZORA corrections to ./CC(=C)Cl_mol_7_conformer_0.zora_sf


 Loading old vectors from job with title :

Molecule conformer 0


      Symmetry analysis of molecular orbitals - initial
      -------------------------------------------------

  Numbering of irreducible representations: 

     1 a'          2 a"      

  Orbital symmetries:

     1 a'          2 a'          3 a'          4 a'          5 a'      
     6 a'          7 a"          8 a'          9 a'         10 a'      
    11 a'         12 a'         13 a'         14 a'         15 a"      
    16 a'         17 a'         18 a"         19 a'         20 a"      
    21 a"         22 a'         23 a'         24 a'         25 a'      
    26 a"         27 a'         28 a'         29 a'         30 a"      

   Time after variat. SCF:     62.3
   Time prior to 1st pass:     62.3

           Memory utilization after 1st SCF pass: 
           Heap Space remaining (MW):      131.01           131006388
          Stack Space remaining (MW):      131.06           131060060

   convergence    iter        energy       DeltaE   RMS-Dens  Diis-err    time
 ---------------- ----- ----------------- --------- --------- ---------  ------
 d= 0,ls=0.0,diis     1   -579.7398803036 -7.26D+02  6.52D-04  9.07D-04    64.6
 d= 0,ls=0.0,diis     2   -579.7400489582 -1.69D-04  1.78D-04  1.77D-04    66.9
 d= 0,ls=0.0,diis     3   -579.7400510768 -2.12D-06  1.13D-04  1.58D-04    69.7
 d= 0,ls=0.0,diis     4   -579.7400689239 -1.78D-05  3.37D-05  1.33D-05    71.9
 d= 0,ls=0.0,diis     5   -579.7400707023 -1.78D-06  4.95D-06  1.56D-07    73.9
 d= 0,ls=0.0,diis     6   -579.7400707220 -1.96D-08  1.19D-06  1.96D-09    75.9
(nogshift,skip_gshiftAOev,done_Fji)=( 1,F,F)


         Total DFT energy =     -579.740070721981
      One electron energy =    -1085.222728285882
           Coulomb energy =      405.497584430671
    Exchange-Corr. energy =      -46.490053151897
 Nuclear repulsion energy =      146.475126285127

       Scaling correction =        0.810113765722

 Numeric. integr. density =       40.000001360794

     Total iterative time =     13.7s



                  Occupations of the irreducible representations
                  ----------------------------------------------

                     irrep           alpha         beta
                     --------     --------     --------
                     a'               16.0         16.0
                     a"                4.0          4.0


 center of mass
 --------------
 x =  -0.00933958 y =   0.18038985 z =   0.00000000

 moments of inertia (a.u.)
 ------------------
         384.049261227107           8.595405527152           0.000000000000
           8.595405527152         197.532083600802           0.000000000000
           0.000000000000           0.000000000000         570.472810179385

            General Information
            -------------------
          SCF calculation type: DFT
          Wavefunction type:  closed shell.
          No. of atoms     :     9
          No. of electrons :    40
           Alpha electrons :    20
            Beta electrons :    20
          Charge           :     0
          Spin multiplicity:     1
          Use of symmetry is: on ; symmetry adaption is: on 
          Maximum number of iterations: ***
          This is a Direct SCF calculation.
          AO basis - number of functions:    75
                     number of shells:    47
          Convergence on energy requested:  1.00D-06
          Convergence on density requested:  1.00D-05
          Convergence on gradient requested:  5.00D-04

              XC Information
              --------------
                         B3LYP Method XC Potential
                     Hartree-Fock (Exact) Exchange  0.200          
                        Slater Exchange Functional  0.800 local    
                    Becke 1988 Exchange Functional  0.720 non-local
              Lee-Yang-Parr Correlation Functional  0.810          
                  VWN I RPA Correlation Functional  0.190 local    

             Grid Information
             ----------------
          Grid used for XC integration:  fine      
          Radial quadrature: Mura-Knowles        
          Angular quadrature: Lebedev. 
          Tag              B.-S. Rad. Rad. Pts. Rad. Cut. Ang. Pts.
          ---              ---------- --------- --------- ---------
          C                   0.70       70          11.0       590
          Cl                  1.00      123          11.0       770
          H                   0.35       60          12.0       590
          Grid pruning is: on 
          Number of quadrature shells:   573
          Spatial weights used:  Erf1

          Convergence Information
          -----------------------
          Convergence aids based upon iterative change in 
          total energy or number of iterations. 
          Levelshifting, if invoked, occurs when the 
          HOMO/LUMO gap drops below (HL_TOL):  1.00D-02
          DIIS, if invoked, will attempt to extrapolate 
          using up to (NFOCK): 10 stored Fock matrices.

                    Damping( 0%)  Levelshifting(0.5)       DIIS
                  --------------- ------------------- ---------------
          dE  on:    start            ASAP                start   
          dE off:    2 iters        *** iters           *** iters 


      Screening Tolerance Information
      -------------------------------
          Density screening/tol_rho:  1.00D-10
          AO Gaussian exp screening on grid/accAOfunc:  14
          CD Gaussian exp screening on grid/accCDfunc:  20
          XC Gaussian exp screening on grid/accXCfunc:  20
          Schwarz screening/accCoul:  1.00D-08



                            NWChem DFT Gradient Module
                            --------------------------


                               Molecule conformer 0



  charge          =   0.00
  wavefunction    = closed shell

  Using symmetry


                         DFT ENERGY GRADIENTS

    atom               coordinates                        gradient
                 x          y          z           x          y          z
   1 C      -2.158155  -2.417176   0.000000   -0.004282  -0.004370   0.000000
   2 C       0.259412  -0.882722   0.000000   -0.001094   0.018077   0.000000
   3 C       2.607522  -1.790272   0.000000    0.005912  -0.006180   0.000000
   4 Cl     -0.229436   2.509449   0.000000    0.000708  -0.012019   0.000000
   5 H      -3.832371  -1.242470   0.000000    0.000986  -0.003797   0.000000
   6 H      -2.258382  -3.614760  -1.659991   -0.000974   0.002985   0.003711
   7 H      -2.258382  -3.614760   1.659991   -0.000974   0.002985  -0.003711
   8 H       4.248922  -0.580614   0.000000   -0.000223   0.000052   0.000000
   9 H       2.917343  -3.806221   0.000000   -0.000058   0.002267   0.000000

                 ----------------------------------------
                 |  Time  |  1-e(secs)   |  2-e(secs)   |
                 ----------------------------------------
                 |  CPU   |       0.00   |       0.10   |
                 ----------------------------------------
                 |  WALL  |       0.00   |       0.10   |
                 ----------------------------------------
  no constraints, skipping    0.0000000000000000     

  Step       Energy      Delta E   Gmax     Grms     Xrms     Xmax   Walltime
  ---- ---------------- -------- -------- -------- -------- -------- --------
@    1    -579.74007072 -4.8D-03  0.01200  0.00308  0.06462  0.15845     78.0
                                                                    



                                Z-matrix (autoz)
                                -------- 

 Units are Angstrom for bonds and degrees for angles

      Type          Name      I     J     K     L     M      Value     Gradient
      ----------- --------  ----- ----- ----- ----- ----- ---------- ----------
    1 Stretch                  1     2                       1.51526    0.00561
    2 Stretch                  1     5                       1.08229   -0.00299
    3 Stretch                  1     6                       1.08447   -0.00470
    4 Stretch                  1     7                       1.08447   -0.00470
    5 Stretch                  2     3                       1.33215    0.00664
    6 Stretch                  2     4                       1.81360   -0.01200
    7 Stretch                  3     8                       1.07899   -0.00015
    8 Stretch                  3     9                       1.07932   -0.00225
    9 Bend                     1     2     3               126.46466   -0.00045
   10 Bend                     1     2     4               114.20322   -0.00070
   11 Bend                     2     1     5               112.54107    0.00161
   12 Bend                     2     1     6               110.75954    0.00032
   13 Bend                     2     1     7               110.75954    0.00032
   14 Bend                     2     3     8               122.47937   -0.00023
   15 Bend                     2     3     9               119.86878    0.00027
   16 Bend                     3     2     4               119.33212    0.00114
   17 Bend                     5     1     6               107.19406   -0.00108
   18 Bend                     5     1     7               107.19406   -0.00108
   19 Bend                     6     1     7               108.19374   -0.00023
   20 Bend                     8     3     9               117.65186   -0.00004
   21 Torsion                  1     2     3     8         180.00000   -0.00000
   22 Torsion                  1     2     3     9           0.00000    0.00000
   23 Torsion                  3     2     1     5         180.00000    0.00000
   24 Torsion                  3     2     1     6         -60.02573   -0.00007
   25 Torsion                  3     2     1     7          60.02573    0.00007
   26 Torsion                  4     2     1     5           0.00000    0.00000
   27 Torsion                  4     2     1     6         119.97427   -0.00007
   28 Torsion                  4     2     1     7        -119.97427    0.00007
   29 Torsion                  4     2     3     8           0.00000    0.00000
   30 Torsion                  4     2     3     9         180.00000    0.00000

  no constraints, skipping    0.0000000000000000     
  no constraints, skipping    0.0000000000000000     
  no constraints, skipping    0.0000000000000000     
  no constraints, skipping    0.0000000000000000     
  no constraints, skipping    0.0000000000000000     
  no constraints, skipping    0.0000000000000000     
  no constraints, skipping    0.0000000000000000     
  no constraints, skipping    0.0000000000000000     

                                 NWChem DFT Module
                                 -----------------


                               Molecule conformer 0




 Summary of "ao basis" -> "ao basis" (spherical)
 ------------------------------------------------------------------------------
       Tag                 Description            Shells   Functions and Types
 ---------------- ------------------------------  ------  ---------------------
 C                           6-311G                  7       13   4s3p
 Cl                          6-311G                 11       21   6s5p
 H                           6-311G                  3        3   3s


      Symmetry analysis of basis
      --------------------------

        a'         58
        a"         17

  Caching 1-el integrals 

            General Information
            -------------------
          SCF calculation type: DFT
          Wavefunction type:  closed shell.
          No. of atoms     :     9
          No. of electrons :    40
           Alpha electrons :    20
            Beta electrons :    20
          Charge           :     0
          Spin multiplicity:     1
          Use of symmetry is: on ; symmetry adaption is: on 
          Maximum number of iterations: ***
          This is a Direct SCF calculation.
          AO basis - number of functions:    75
                     number of shells:    47
          Convergence on energy requested:  1.00D-06
          Convergence on density requested:  1.00D-05
          Convergence on gradient requested:  5.00D-04

              XC Information
              --------------
                         B3LYP Method XC Potential
                     Hartree-Fock (Exact) Exchange  0.200          
                        Slater Exchange Functional  0.800 local    
                    Becke 1988 Exchange Functional  0.720 non-local
              Lee-Yang-Parr Correlation Functional  0.810          
                  VWN I RPA Correlation Functional  0.190 local    

             Grid Information
             ----------------
          Grid used for XC integration:  fine      
          Radial quadrature: Mura-Knowles        
          Angular quadrature: Lebedev. 
          Tag              B.-S. Rad. Rad. Pts. Rad. Cut. Ang. Pts.
          ---              ---------- --------- --------- ---------
          C                   0.70       70          11.0       590
          Cl                  1.00      123          11.0       770
          H                   0.35       60          12.0       590
          Grid pruning is: on 
          Number of quadrature shells:   573
          Spatial weights used:  Erf1

          Convergence Information
          -----------------------
          Convergence aids based upon iterative change in 
          total energy or number of iterations. 
          Levelshifting, if invoked, occurs when the 
          HOMO/LUMO gap drops below (HL_TOL):  1.00D-02
          DIIS, if invoked, will attempt to extrapolate 
          using up to (NFOCK): 10 stored Fock matrices.

                    Damping( 0%)  Levelshifting(0.5)       DIIS
                  --------------- ------------------- ---------------
          dE  on:    start            ASAP                start   
          dE off:    2 iters        *** iters           *** iters 


      Screening Tolerance Information
      -------------------------------
          Density screening/tol_rho:  1.00D-10
          AO Gaussian exp screening on grid/accAOfunc:  14
          CD Gaussian exp screening on grid/accCDfunc:  20
          XC Gaussian exp screening on grid/accXCfunc:  20
          Schwarz screening/accCoul:  1.00D-08

          Performing ZORA calculations
          ----------------------------


      Superposition of Atomic Density Guess
      -------------------------------------

 Sum of atomic energies:        -574.98156165

 Read atomic ZORA corrections from ./CC(=C)Cl_mol_7_conformer_0.zora_sf

 Forcing recalculation of ZORA corrections
       Generating atomic ZORA corrections
       ----------------------------------

 In dft_scf:: zora:Knucl= F

 Grid_pts file          = ./CC(=C)Cl_mol_7_conformer_0.gridpts.00
 Record size in doubles =  12289        No. of grid_pts per rec  =   3070
 Max. records in memory =      5        Max. recs in file   =     13486


 Wrote atomic ZORA corrections to ./CC(=C)Cl_mol_7_conformer_0.zora_sf


 Loading old vectors from job with title :

Molecule conformer 0


      Symmetry analysis of molecular orbitals - initial
      -------------------------------------------------

  Numbering of irreducible representations: 

     1 a'          2 a"      

  Orbital symmetries:

     1 a'          2 a'          3 a'          4 a'          5 a'      
     6 a'          7 a"          8 a'          9 a'         10 a'      
    11 a'         12 a'         13 a'         14 a'         15 a"      
    16 a'         17 a'         18 a"         19 a'         20 a"      
    21 a"         22 a'         23 a'         24 a'         25 a'      
    26 a"         27 a'         28 a'         29 a'         30 a"      

   Time after variat. SCF:     85.0
   Time prior to 1st pass:     85.0

           Memory utilization after 1st SCF pass: 
           Heap Space remaining (MW):      131.01           131006388
          Stack Space remaining (MW):      131.06           131060060

   convergence    iter        energy       DeltaE   RMS-Dens  Diis-err    time
 ---------------- ----- ----------------- --------- --------- ---------  ------
 d= 0,ls=0.0,diis     1   -579.7404728388 -7.26D+02  6.18D-04  1.09D-03    87.2
 d= 0,ls=0.0,diis     2   -579.7406764140 -2.04D-04  1.88D-04  6.16D-05    89.7
 d= 0,ls=0.0,diis     3   -579.7406662096  1.02D-05  1.06D-04  1.44D-04    92.1
 d= 0,ls=0.0,diis     4   -579.7406845010 -1.83D-05  1.97D-05  3.07D-06    94.4
 d= 0,ls=0.0,diis     5   -579.7406848714 -3.70D-07  4.16D-06  3.63D-07    96.7
(nogshift,skip_gshiftAOev,done_Fji)=( 1,F,F)


         Total DFT energy =     -579.740684871378
      One electron energy =    -1084.399232375464
           Coulomb energy =      405.091262738005
    Exchange-Corr. energy =      -46.484146013979
 Nuclear repulsion energy =      146.051430780061

       Scaling correction =        0.810095139742

 Numeric. integr. density =       40.000001361348

     Total iterative time =     11.8s



                  Occupations of the irreducible representations
                  ----------------------------------------------

                     irrep           alpha         beta
                     --------     --------     --------
                     a'               16.0         16.0
                     a"                4.0          4.0


 center of mass
 --------------
 x =  -0.01200075 y =   0.18557515 z =   0.00000000

 moments of inertia (a.u.)
 ------------------
         388.458940717060           8.900888553294           0.000000000000
           8.900888553294         197.012770528194           0.000000000000
           0.000000000000           0.000000000000         574.260728224358
 Line search: 
     step= 1.00 grad=-9.1D-04 hess= 2.9D-04 energy=   -579.740685 mode=downhill
 new step= 1.55                   predicted energy=   -579.740774
  no constraints, skipping    0.0000000000000000     
  no constraints, skipping    0.0000000000000000     
  no constraints, skipping    0.0000000000000000     
  no constraints, skipping    0.0000000000000000     
  no constraints, skipping    0.0000000000000000     
  no constraints, skipping    0.0000000000000000     
  no constraints, skipping    0.0000000000000000     
  no constraints, skipping    0.0000000000000000     

          --------
          Step   2
          --------


                         Geometry "geometry" -> "geometry"
                         ---------------------------------

 Output coordinates in angstroms (scale by  1.889725989 to convert to a.u.)

  No.       Tag          Charge          X              Y              Z
 ---- ---------------- ---------- -------------- -------------- --------------
    1 C                    6.0000    -1.14127737    -1.28349146     0.00000000
    2 C                    6.0000     0.13627090    -0.48665586     0.00000000
    3 C                    6.0000     1.37482815    -0.94628108     0.00000000
    4 Cl                  17.0000    -0.12462219     1.34489442     0.00000000
    5 H                    1.0000    -2.01295757    -0.63663379     0.00000000
    6 H                    1.0000    -1.19566935    -1.92175332    -0.88470130
    7 H                    1.0000    -1.19566935    -1.92175332     0.88470130
    8 H                    1.0000     2.23983260    -0.30237517     0.00000000
    9 H                    1.0000     1.54697389    -2.01620682     0.00000000

      Atomic Mass 
      ----------- 

      C                 12.000000
      Cl                34.968850
      H                  1.007825


 Effective nuclear repulsion energy (a.u.)     145.8234143884

            Nuclear Dipole moment (a.u.) 
            ----------------------------
        X                 Y               Z
 ---------------- ---------------- ----------------
    -0.9772472731    -0.4423615126     0.0000000000

      Symmetry information
      --------------------

 Group name             Cs        
 Group number              2
 Group order               2
 No. of unique centers     8

      Symmetry unique atoms

     1    2    3    4    5    6    8    9


                                 NWChem DFT Module
                                 -----------------


                               Molecule conformer 0




 Summary of "ao basis" -> "ao basis" (spherical)
 ------------------------------------------------------------------------------
       Tag                 Description            Shells   Functions and Types
 ---------------- ------------------------------  ------  ---------------------
 C                           6-311G                  7       13   4s3p
 Cl                          6-311G                 11       21   6s5p
 H                           6-311G                  3        3   3s


      Symmetry analysis of basis
      --------------------------

        a'         58
        a"         17

  Caching 1-el integrals 

            General Information
            -------------------
          SCF calculation type: DFT
          Wavefunction type:  closed shell.
          No. of atoms     :     9
          No. of electrons :    40
           Alpha electrons :    20
            Beta electrons :    20
          Charge           :     0
          Spin multiplicity:     1
          Use of symmetry is: on ; symmetry adaption is: on 
          Maximum number of iterations: ***
          This is a Direct SCF calculation.
          AO basis - number of functions:    75
                     number of shells:    47
          Convergence on energy requested:  1.00D-06
          Convergence on density requested:  1.00D-05
          Convergence on gradient requested:  5.00D-04

              XC Information
              --------------
                         B3LYP Method XC Potential
                     Hartree-Fock (Exact) Exchange  0.200          
                        Slater Exchange Functional  0.800 local    
                    Becke 1988 Exchange Functional  0.720 non-local
              Lee-Yang-Parr Correlation Functional  0.810          
                  VWN I RPA Correlation Functional  0.190 local    

             Grid Information
             ----------------
          Grid used for XC integration:  fine      
          Radial quadrature: Mura-Knowles        
          Angular quadrature: Lebedev. 
          Tag              B.-S. Rad. Rad. Pts. Rad. Cut. Ang. Pts.
          ---              ---------- --------- --------- ---------
          C                   0.70       70          11.0       590
          Cl                  1.00      123          11.0       770
          H                   0.35       60          12.0       590
          Grid pruning is: on 
          Number of quadrature shells:   573
          Spatial weights used:  Erf1

          Convergence Information
          -----------------------
          Convergence aids based upon iterative change in 
          total energy or number of iterations. 
          Levelshifting, if invoked, occurs when the 
          HOMO/LUMO gap drops below (HL_TOL):  1.00D-02
          DIIS, if invoked, will attempt to extrapolate 
          using up to (NFOCK): 10 stored Fock matrices.

                    Damping( 0%)  Levelshifting(0.5)       DIIS
                  --------------- ------------------- ---------------
          dE  on:    start            ASAP                start   
          dE off:    2 iters        *** iters           *** iters 


      Screening Tolerance Information
      -------------------------------
          Density screening/tol_rho:  1.00D-10
          AO Gaussian exp screening on grid/accAOfunc:  14
          CD Gaussian exp screening on grid/accCDfunc:  20
          XC Gaussian exp screening on grid/accXCfunc:  20
          Schwarz screening/accCoul:  1.00D-08

          Performing ZORA calculations
          ----------------------------


      Superposition of Atomic Density Guess
      -------------------------------------

 Sum of atomic energies:        -574.98156165

 Read atomic ZORA corrections from ./CC(=C)Cl_mol_7_conformer_0.zora_sf

 Forcing recalculation of ZORA corrections
       Generating atomic ZORA corrections
       ----------------------------------

 In dft_scf:: zora:Knucl= F

 Grid_pts file          = ./CC(=C)Cl_mol_7_conformer_0.gridpts.00
 Record size in doubles =  12289        No. of grid_pts per rec  =   3070
 Max. records in memory =      5        Max. recs in file   =     13476


 Wrote atomic ZORA corrections to ./CC(=C)Cl_mol_7_conformer_0.zora_sf


 Loading old vectors from job with title :

Molecule conformer 0


      Symmetry analysis of molecular orbitals - initial
      -------------------------------------------------

  Numbering of irreducible representations: 

     1 a'          2 a"      

  Orbital symmetries:

     1 a'          2 a'          3 a'          4 a'          5 a'      
     6 a'          7 a"          8 a'          9 a'         10 a'      
    11 a'         12 a'         13 a'         14 a'         15 a"      
    16 a'         17 a'         18 a"         19 a'         20 a"      
    21 a"         22 a'         23 a'         24 a'         25 a'      
    26 a"         27 a'         28 a'         29 a'         30 a"      

   Time after variat. SCF:    103.6
   Time prior to 1st pass:    103.6

           Memory utilization after 1st SCF pass: 
           Heap Space remaining (MW):      131.01           131006388
          Stack Space remaining (MW):      131.06           131060060

   convergence    iter        energy       DeltaE   RMS-Dens  Diis-err    time
 ---------------- ----- ----------------- --------- --------- ---------  ------
 d= 0,ls=0.0,diis     1   -579.7407218475 -7.26D+02  3.36D-04  3.22D-04   106.0
 d= 0,ls=0.0,diis     2   -579.7407824603 -6.06D-05  9.88D-05  1.71D-05   108.1
 d= 0,ls=0.0,diis     3   -579.7407799109  2.55D-06  5.49D-05  3.80D-05   110.7
 d= 0,ls=0.0,diis     4   -579.7407846981 -4.79D-06  1.12D-05  1.00D-06   113.5
 d= 0,ls=0.0,diis     5   -579.7407848196 -1.22D-07  2.42D-06  1.10D-07   115.8
(nogshift,skip_gshiftAOev,done_Fji)=( 1,F,F)


         Total DFT energy =     -579.740784819645
      One electron energy =    -1083.955304778465
           Coulomb energy =      404.872202261339
    Exchange-Corr. energy =      -46.481096690878
 Nuclear repulsion energy =      145.823414388359

       Scaling correction =        0.810084799303

 Numeric. integr. density =       40.000001262787

     Total iterative time =     12.3s



                  Occupations of the irreducible representations
                  ----------------------------------------------

                     irrep           alpha         beta
                     --------     --------     --------
                     a'               16.0         16.0
                     a"                4.0          4.0


 center of mass
 --------------
 x =  -0.01348418 y =   0.18846418 z =   0.00000000

 moments of inertia (a.u.)
 ------------------
         390.918746434432           9.068358697913           0.000000000000
           9.068358697913         196.712033973571           0.000000000000
           0.000000000000           0.000000000000         576.363058479782

            General Information
            -------------------
          SCF calculation type: DFT
          Wavefunction type:  closed shell.
          No. of atoms     :     9
          No. of electrons :    40
           Alpha electrons :    20
            Beta electrons :    20
          Charge           :     0
          Spin multiplicity:     1
          Use of symmetry is: on ; symmetry adaption is: on 
          Maximum number of iterations: ***
          This is a Direct SCF calculation.
          AO basis - number of functions:    75
                     number of shells:    47
          Convergence on energy requested:  1.00D-06
          Convergence on density requested:  1.00D-05
          Convergence on gradient requested:  5.00D-04

              XC Information
              --------------
                         B3LYP Method XC Potential
                     Hartree-Fock (Exact) Exchange  0.200          
                        Slater Exchange Functional  0.800 local    
                    Becke 1988 Exchange Functional  0.720 non-local
              Lee-Yang-Parr Correlation Functional  0.810          
                  VWN I RPA Correlation Functional  0.190 local    

             Grid Information
             ----------------
          Grid used for XC integration:  fine      
          Radial quadrature: Mura-Knowles        
          Angular quadrature: Lebedev. 
          Tag              B.-S. Rad. Rad. Pts. Rad. Cut. Ang. Pts.
          ---              ---------- --------- --------- ---------
          C                   0.70       70          11.0       590
          Cl                  1.00      123          11.0       770
          H                   0.35       60          12.0       590
          Grid pruning is: on 
          Number of quadrature shells:   573
          Spatial weights used:  Erf1

          Convergence Information
          -----------------------
          Convergence aids based upon iterative change in 
          total energy or number of iterations. 
          Levelshifting, if invoked, occurs when the 
          HOMO/LUMO gap drops below (HL_TOL):  1.00D-02
          DIIS, if invoked, will attempt to extrapolate 
          using up to (NFOCK): 10 stored Fock matrices.

                    Damping( 0%)  Levelshifting(0.5)       DIIS
                  --------------- ------------------- ---------------
          dE  on:    start            ASAP                start   
          dE off:    2 iters        *** iters           *** iters 


      Screening Tolerance Information
      -------------------------------
          Density screening/tol_rho:  1.00D-10
          AO Gaussian exp screening on grid/accAOfunc:  14
          CD Gaussian exp screening on grid/accCDfunc:  20
          XC Gaussian exp screening on grid/accXCfunc:  20
          Schwarz screening/accCoul:  1.00D-08



                            NWChem DFT Gradient Module
                            --------------------------


                               Molecule conformer 0



  charge          =   0.00
  wavefunction    = closed shell

  Using symmetry


                         DFT ENERGY GRADIENTS

    atom               coordinates                        gradient
                 x          y          z           x          y          z
   1 C      -2.156702  -2.425447   0.000000   -0.000931  -0.000358   0.000000
   2 C       0.257515  -0.919646   0.000000    0.005518   0.001799   0.000000
   3 C       2.598048  -1.788212   0.000000   -0.004369   0.001190   0.000000
   4 Cl     -0.235502   2.541482   0.000000   -0.000342  -0.001918   0.000000
   5 H      -3.803938  -1.203063   0.000000    0.000554   0.000037   0.000000
   6 H      -2.259487  -3.631587  -1.671843   -0.000011  -0.000184  -0.000377
   7 H      -2.259487  -3.631587   1.671843   -0.000011  -0.000184   0.000377
   8 H       4.232670  -0.571406   0.000000   -0.000282  -0.000138   0.000000
   9 H       2.923357  -3.810078   0.000000   -0.000126  -0.000243   0.000000

                 ----------------------------------------
                 |  Time  |  1-e(secs)   |  2-e(secs)   |
                 ----------------------------------------
                 |  CPU   |       0.00   |       0.11   |
                 ----------------------------------------
                 |  WALL  |       0.00   |       0.11   |
                 ----------------------------------------
  no constraints, skipping    0.0000000000000000     

  Step       Energy      Delta E   Gmax     Grms     Xrms     Xmax   Walltime
  ---- ---------------- -------- -------- -------- -------- -------- --------
@    2    -579.74078482 -7.1D-04  0.00476  0.00097  0.01517  0.03935    118.2
[...]
dia1(k,t,iat1,ispin)=(  2,  3,  8,  1)=(     0.00114389,     0.00114389) ppm
dia1(k,t,iat1,ispin)=(  3,  1,  8,  1)=(     0.00091019,     0.00091019) ppm
dia1(k,t,iat1,ispin)=(  3,  2,  8,  1)=(    -0.00005703,    -0.00005703) ppm
dia1(k,t,iat1,ispin)=(  3,  3,  8,  1)=(    15.12767222,    15.12767222) ppm
(dia2,par1)(k,t,iat1,spin)=(  1,  1,  8,  1)=(     1.52253799,     1.52253799,    -0.17275158,    -0.17275158) ppm
(dia2,par1)(k,t,iat1,spin)=(  2,  1,  8,  1)=(    -3.23918533,    -3.23918533,     0.10801283,     0.10801283) ppm
(dia2,par1)(k,t,iat1,spin)=(  3,  1,  8,  1)=(    -0.00045029,    -0.00045029,    -0.00070449,    -0.00070449) ppm
(dia2,par1)(k,t,iat1,spin)=(  1,  2,  8,  1)=(    -3.30899305,    -3.30899305,     0.61496452,     0.61496452) ppm
(dia2,par1)(k,t,iat1,spin)=(  2,  2,  8,  1)=(     3.95757779,     3.95757779,    -0.44221191,    -0.44221191) ppm
(dia2,par1)(k,t,iat1,spin)=(  3,  2,  8,  1)=(    -0.00137909,    -0.00137909,    -0.00177576,    -0.00177576) ppm
(dia2,par1)(k,t,iat1,spin)=(  1,  3,  8,  1)=(    -0.00398704,    -0.00398704,    -0.00003480,    -0.00003480) ppm
(dia2,par1)(k,t,iat1,spin)=(  2,  3,  8,  1)=(    -0.00044773,    -0.00044773,     0.00001306,     0.00001306) ppm
(dia2,par1)(k,t,iat1,spin)=(  3,  3,  8,  1)=(     6.02630918,     6.02630918,    -0.73630526,    -0.73630526) ppm
dia1(k,t,iat1,ispin)=(  1,  1,  9,  1)=(    22.44635170,    22.44635170) ppm
dia1(k,t,iat1,ispin)=(  1,  2,  9,  1)=(    -6.34808916,    -6.34808916) ppm
dia1(k,t,iat1,ispin)=(  1,  3,  9,  1)=(    -0.00069282,    -0.00069282) ppm
dia1(k,t,iat1,ispin)=(  2,  1,  9,  1)=(    -6.44001195,    -6.44001195) ppm
dia1(k,t,iat1,ispin)=(  2,  2,  9,  1)=(    39.77975068,    39.77975068) ppm
dia1(k,t,iat1,ispin)=(  2,  3,  9,  1)=(     0.00062894,     0.00062894) ppm
dia1(k,t,iat1,ispin)=(  3,  1,  9,  1)=(     0.00078723,     0.00078723) ppm
dia1(k,t,iat1,ispin)=(  3,  2,  9,  1)=(    -0.00024710,    -0.00024710) ppm
dia1(k,t,iat1,ispin)=(  3,  3,  9,  1)=(    16.14766348,    16.14766348) ppm
(dia2,par1)(k,t,iat1,spin)=(  1,  1,  9,  1)=(     5.80650637,     5.80650637,     0.37752795,     0.37752795) ppm
(dia2,par1)(k,t,iat1,spin)=(  2,  1,  9,  1)=(     0.81487563,     0.81487563,    -0.42632997,    -0.42632997) ppm
(dia2,par1)(k,t,iat1,spin)=(  3,  1,  9,  1)=(    -0.00074788,    -0.00074788,    -0.00135639,    -0.00135639) ppm
(dia2,par1)(k,t,iat1,spin)=(  1,  2,  9,  1)=(     1.37508381,     1.37508381,     1.31200493,     1.31200493) ppm
(dia2,par1)(k,t,iat1,spin)=(  2,  2,  9,  1)=(     0.11564155,     0.11564155,    -0.93794821,    -0.93794821) ppm
(dia2,par1)(k,t,iat1,spin)=(  3,  2,  9,  1)=(    -0.00287595,    -0.00287595,     0.00044610,     0.00044610) ppm
(dia2,par1)(k,t,iat1,spin)=(  1,  3,  9,  1)=(    -0.00048125,    -0.00048125,     0.00007416,     0.00007416) ppm
(dia2,par1)(k,t,iat1,spin)=(  2,  3,  9,  1)=(     0.00080745,     0.00080745,     0.00021842,     0.00021842) ppm
(dia2,par1)(k,t,iat1,spin)=(  3,  3,  9,  1)=(     5.80435028,     5.80435028,     1.19916451,     1.19916451) ppm

 Wrote ZORA NMR data to ./CC(=C)Cl_mol_7_conformer_0.zora_nmrcs

(nogshift,skip_gshiftAOev,done_Fji)=( 1,F,T)


         Total DFT energy =     -579.746117022562
      One electron energy =    -1083.869138076198
           Coulomb energy =      404.775484233623
    Exchange-Corr. energy =      -46.478633039583
 Nuclear repulsion energy =      145.575763331965

             COSMO energy =        0.250406527631

       Scaling correction =        0.810205781947

 Numeric. integr. density =       40.000001399101

     Total iterative time =     58.0s


                                   COSMO solvation results
                                   -----------------------

                 gas phase energy =      -579.740921617967
                 sol phase energy =      -579.746117022562
 (electrostatic) solvation energy =         0.005195404595 (    3.26 kcal/mol)

 center of mass
 --------------
 x =  -0.00897368 y =   0.18910137 z =   0.00000000

 moments of inertia (a.u.)
 ------------------
         392.291256067432           8.083066296505           0.000000000000
           8.083066296505         197.407145570685           0.000000000000
           0.000000000000           0.000000000000         578.455324994325

            Scalar ZORA NMR Shielding
            -------------------------


          -----------------------------------------
          Chemical Shielding Tensors (GIAO, in ppm)
          -----------------------------------------


 Read ZORA NMR data from ./CC(=C)Cl_mol_7_conformer_0.zora_nmrcs

    0 giaofock schwarz done =      92.64%
    0 giaofock schwarz done =      77.59%
                                NWChem CPHF Module
                                ------------------



 solvent parameters
 solvname_short: cdcl3   
 solvname_long:  unknown                            
 dielec:       78.4000
 dielecinf:     1.7769

          ---------------
          -cosmo- solvent
          ---------------
 Cosmo: York-Karplus, doi: 10.1021/jp992097l
 dielectric constant -eps-     =  78.40
 screen = (eps-1)/(eps    )    =   0.98724
 surface charge correction     = lagrangian
 -lineq- algorithm             =   0
 -bem- low  level              =   2
 -bem- from -octahedral-
 gaussian surface charge width =   0.98000
 degree of switching           =   1.00000
 switching function tolerance  =   0.00010
 atomic radii = 
 --------------
    1  6.000  2.000
    2  6.000  2.000
    3  6.000  2.000
    4 17.000  2.050
    5  1.000  1.300
    6  1.000  1.300
    7  1.000  1.300
    8  1.000  1.300
    9  1.000  1.300

 solvent accessible surface
 --------------------------

 ---------- ATOMIC COORDINATES (A.U.) ------------ VDWR(ANG.) --
     1   -2.16247200   -2.42590991    0.00000000     2.000
     2    0.25233775   -0.93113446    0.00000000     2.000
     3    2.60420348   -1.79001282    0.00000000     2.000
     4   -0.22385573    2.54735910    0.00000000     2.050
     5   -3.81088944   -1.20318568    0.00000000     1.300
     6   -2.26831057   -3.63254757   -1.67001367     1.300
     7   -2.26831057   -3.63254757    1.67001367     1.300
     8    4.23129195   -0.56227887    0.00000000     1.300
     9    2.94247848   -3.80928807    0.00000000     1.300
 number of segments per atom =         32
 number of   points per atom =         32
 atom (   nspa,  nppa )
 ----------------------
    1 (     18,     0 )       0
    2 (     10,     0 )       0
    3 (     20,     0 )       0
    4 (     26,     0 )       0
    5 (     12,     0 )       0
    6 (     15,     0 )       0
    7 (     15,     0 )       0
    8 (     14,     0 )       0
    9 (     14,     0 )       0
 number of -cosmo- surface points =      144
 molecular surface =    115.066 angstrom**2
 molecular volume  =     70.269 angstrom**3
 G(cav/disp)       =      1.435 kcal/mol
 ...... end of -cosmo- initialization ......


  scftype          =     RHF 
  nclosed          =       20
  nopen            =        0
  variables        =     1100
  # of vectors     =        3
  tolerance        = 0.10D-03
  level shift      = 0.00D+00
  max iterations   =       50
  max subspace     =       30

 SCF residual:    1.6681346042219339E-005


Iterative solution of linear equations
  No. of variables     1100
  No. of equations        3
  Maximum subspace       30
        Iterations       50
       Convergence  1.0D-04
        Start time   1055.4


   iter   nsub   residual    time
   ----  ------  --------  ---------
     1      3    4.90D-01    1058.2
     2      6    2.40D-02    1061.1
     3      9    1.79D-03    1063.8
     4     12    5.59D-05    1066.7

 Wrote CPHF data to ./CC(=C)Cl_mol_7_conformer_0.shieldcphf

 Calc. par tensor-> zora
      Atom:    1  H 
        Diamagnetic
     36.8415     -2.5886      0.0023
     -2.5886     29.2514      0.0010
      0.0023      0.0010     21.7188

        Paramagnetic
     -1.3057      2.1248     -0.0021
      2.1248      2.1648     -0.0023
     -0.0021     -0.0023      4.6928

        Total Shielding Tensor
     35.5358     -0.4638      0.0002
     -0.4638     31.4162     -0.0013
      0.0002     -0.0013     26.4116

           isotropic =      31.1212
          anisotropy =       6.6992

          Principal Components and Axis System
                 1           2           3
               35.5873     31.3646     26.4116

      1         0.9939      0.1105     -0.0000
      2        -0.1105      0.9939      0.0003
      3         0.0000     -0.0003      1.0000



      Atom:    2  H 
        Diamagnetic
     26.4478      3.5954      2.1566
      3.5954     30.7562      7.7166
      2.1566      7.7166     31.0521

        Paramagnetic
      3.1565     -1.2147     -0.9880
     -1.2147      0.2199     -3.6848
     -0.9880     -3.6848     -1.1959

        Total Shielding Tensor
     29.6044      2.3807      1.1686
      2.3807     30.9761      4.0319
      1.1686      4.0319     29.8562

           isotropic =      30.1456
          anisotropy =       8.1709

          Principal Components and Axis System
                 1           2           3
               35.5928     28.6741     26.1697

      1         0.3961      0.8838      0.2490
      2         0.7113     -0.1239     -0.6919
      3         0.5806     -0.4511      0.6778



      Atom:    3  H 
        Diamagnetic
     26.4467      3.5951     -2.1544
      3.5951     30.7546     -7.7151
     -2.1544     -7.7151     31.0507

        Paramagnetic
      3.1535     -1.2155      0.9866
     -1.2155      0.2193      3.6827
      0.9866      3.6827     -1.1951

        Total Shielding Tensor
     29.6002      2.3796     -1.1677
      2.3796     30.9739     -4.0324
     -1.1677     -4.0324     29.8555

           isotropic =      30.1432
          anisotropy =       8.1705

          Principal Components and Axis System
                 1           2           3
               35.5903     28.6717     26.1677

      1         0.3958      0.8839     -0.2491
      2         0.7114     -0.1235      0.6919
      3        -0.5808      0.4511      0.6777



      Atom:    4  H 
        Diamagnetic
     38.6114      4.7202     -0.0024
      4.7202     28.9307     -0.0004
     -0.0024     -0.0004     21.1540

        Paramagnetic
     -7.4543     -6.9264      0.0023
     -6.9264     -4.2860      0.0009
      0.0023      0.0009      4.6487

        Total Shielding Tensor
     31.1570     -2.2062     -0.0001
     -2.2062     24.6446      0.0005
     -0.0001      0.0005     25.8026

           isotropic =      27.2014
          anisotropy =       6.9489

          Principal Components and Axis System
                 1           2           3
               31.8340     25.8026     23.9677

      1         0.9560      0.0001      0.2934
      2        -0.2934      0.0002      0.9560
      3        -0.0000      1.0000     -0.0003



      Atom:    5  H 
        Diamagnetic
     28.2529     -5.2991     -0.0006
     -5.2991     39.8954     -0.0008
     -0.0006     -0.0008     21.9520

        Paramagnetic
      1.3613      2.6970      0.0003
      2.6970    -14.2968      0.0024
      0.0003      0.0024      3.8975

        Total Shielding Tensor
     29.6142     -2.6020     -0.0002
     -2.6020     25.5986      0.0016
     -0.0002      0.0016     25.8495

           isotropic =      27.0207
          anisotropy =       5.8084

          Principal Components and Axis System
                 1           2           3
               30.8930     25.8495     24.3198

      1         0.8975      0.0005      0.4411
      2        -0.4411      0.0007      0.8975
      3        -0.0002      1.0000     -0.0009




 Task  times  cpu:       98.4s     wall:       83.8s


                                NWChem Input Module
                                -------------------


 Summary of allocated global arrays
-----------------------------------
  array 0 => double precision sf 1(75,75),  handle: -987 
  array 1 => double precision sf 1(75,75),  handle: -986 
  array 2 => double precision sf 1(75,75),  handle: -985 
  array 3 => double precision sf 1(75,75),  handle: -984 
  array 4 => double precision sf 1(75,75),  handle: -983 
  array 5 => double precision sf 1(75,75),  handle: -982 
  array 6 => double precision sf 1(75,75),  handle: -981 
  array 7 => double precision sf 1(75,75),  handle: -980 
  array 8 => double precision sf 1(75,75),  handle: -979 
  array 9 => double precision sf 1(75,75),  handle: -978 
  array 10 => double precision sf 1(75,75),  handle: -977 
  array 11 => double precision sf 1(75,75),  handle: -976 
  array 12 => double precision sf 1(75,75),  handle: -975 
  array 13 => double precision sf 1(75,75),  handle: -974 
  array 14 => double precision sf 1(75,75),  handle: -973 
  array 15 => double precision sf 1(75,75),  handle: -972 
  array 16 => double precision sf 1(75,75),  handle: -971 
  array 17 => double precision sf 1(75,75),  handle: -970 
  array 18 => double precision sf 1(75,75),  handle: -969 
  array 19 => double precision sf 1(75,75),  handle: -968 
  array 20 => double precision sf 1(75,75),  handle: -967 
  array 21 => double precision sf 1(75,75),  handle: -966 
  array 22 => double precision sf 1(75,75),  handle: -965 
  array 23 => double precision sf 1(75,75),  handle: -964 
  array 24 => double precision sf 1(75,75),  handle: -963 
  array 25 => double precision sf 1(75,75),  handle: -962 
  array 26 => double precision sf 1(75,75),  handle: -961 
  array 27 => double precision sf 1(75,75),  handle: -960 
  array 28 => double precision sf 1(75,75),  handle: -959 
  array 29 => double precision sf 1(75,75),  handle: -958 
  array 30 => double precision sf 1(75,75),  handle: -957 
  array 31 => double precision sf 1(75,75),  handle: -956 
  array 32 => double precision sf 1(75,75),  handle: -955 
  array 33 => double precision sf 1(75,75),  handle: -954 
  array 34 => double precision sf 1(75,75),  handle: -953 
  array 35 => double precision sf 1(75,75),  handle: -952 
  array 36 => double precision sf 1(75,75),  handle: -951 
  array 37 => double precision sf 1(75,75),  handle: -950 
  array 38 => double precision sf 1(75,75),  handle: -949 
  array 39 => double precision sf 1(75,75),  handle: -948 
  array 40 => double precision sf 1(75,75),  handle: -947 
  array 41 => double precision sf 1(75,75),  handle: -946 
  array 42 => double precision sf 1(75,75),  handle: -945 
  array 43 => double precision sf 1(75,75),  handle: -944 
  array 44 => double precision sf 1(75,75),  handle: -943 
  array 45 => double precision sf 1(75,75),  handle: -942 
  array 46 => double precision sf 1(75,75),  handle: -941 
  array 47 => double precision sf 1(75,75),  handle: -940 
  array 48 => double precision sf 1(75,75),  handle: -939 
  array 49 => double precision sf 1(75,75),  handle: -938 
  array 50 => double precision sf 1(75,75),  handle: -937 
  array 51 => double precision sf 1(75,75),  handle: -936 
  array 52 => double precision sf 1(75,75),  handle: -935 
  array 53 => double precision sf 1(75,75),  handle: -934 
  array 54 => double precision sf 1(75,75),  handle: -933 
  array 55 => double precision sf 1(75,75),  handle: -932 
  array 56 => double precision sf 1(75,75),  handle: -931 



                         GA Statistics for process    0
                         ------------------------------

       create   destroy   get      put      acc     scatter   gather  read&inc
calls: 8660     8298     2.93e+05 5.34e+04 7.38e+04   60        0     1.04e+04 
number of processes/call 0.00e+00 0.00e+00 0.00e+00 0.00e+00 0.00e+00
bytes total:             4.04e+08 5.82e+07 3.38e+08 4.48e+02 0.00e+00 8.35e+04
bytes remote:            3.58e+08 4.99e+07 3.10e+08 -2.24e+02 0.00e+00 0.00e+00
Max memory consumed for GA by this process: 660432 bytes

MA_summarize_allocated_blocks: starting scan ...
MA_summarize_allocated_blocks: scan completed: 0 heap blocks, 0 stack blocks
MA usage statistics:

	allocation statistics:
					      heap	     stack
					      ----	     -----
	current number of blocks	         0	         0
	maximum number of blocks	        66	        59
	current total bytes		         0	         0
	maximum total bytes		   2300792	  24872360
	maximum total K-bytes		      2301	     24873
	maximum total M-bytes		         3	        25


                                     CITATION
                                     --------
                Please cite the following reference when publishing
                           results obtained with NWChem:

          E. Apr, E. J. Bylaska, W. A. de Jong, N. Govind, K. Kowalski,
       T. P. Straatsma, M. Valiev, H. J. J. van Dam, Y. Alexeev, J. Anchell,
       V. Anisimov, F. W. Aquino, R. Atta-Fynn, J. Autschbach, N. P. Bauman,
     J. C. Becca, D. E. Bernholdt, K. Bhaskaran-Nair, S. Bogatko, P. Borowski,
        J. Boschen, J. Brabec, A. Bruner, E. Caut, Y. Chen, G. N. Chuev,
      C. J. Cramer, J. Daily, M. J. O. Deegan, T. H. Dunning Jr., M. Dupuis,
   K. G. Dyall, G. I. Fann, S. A. Fischer, A. Fonari, H. Frchtl, L. Gagliardi,
      J. Garza, N. Gawande, S. Ghosh, K. Glaesemann, A. W. Gtz, J. Hammond,
       V. Helms, E. D. Hermes, K. Hirao, S. Hirata, M. Jacquelin, L. Jensen,
   B. G. Johnson, H. Jnsson, R. A. Kendall, M. Klemm, R. Kobayashi, V. Konkov,
      S. Krishnamoorthy, M. Krishnan, Z. Lin, R. D. Lins, R. J. Littlefield,
      A. J. Logsdail, K. Lopata, W. Ma, A. V. Marenich, J. Martin del Campo,
   D. Mejia-Rodriguez, J. E. Moore, J. M. Mullin, T. Nakajima, D. R. Nascimento,
    J. A. Nichols, P. J. Nichols, J. Nieplocha, A. Otero-de-la-Roza, B. Palmer,
    A. Panyala, T. Pirojsirikul, B. Peng, R. Peverati, J. Pittner, L. Pollack,
   R. M. Richard, P. Sadayappan, G. C. Schatz, W. A. Shelton, D. W. Silverstein,
   D. M. A. Smith, T. A. Soares, D. Song, M. Swart, H. L. Taylor, G. S. Thomas,
            V. Tipparaju, D. G. Truhlar, K. Tsemekhman, T. Van Voorhis,
     . Vzquez-Mayagoitia, P. Verma, O. Villa, A. Vishnu, K. D. Vogiatzis,
        D. Wang, J. H. Weare, M. J. Williamson, T. L. Windus, K. Woliski,
        A. T. Wong, Q. Wu, C. Yang, Q. Yu, M. Zacharias, Z. Zhang, Y. Zhao,
                                and R. J. Harrison
                        "NWChem: Past, present, and future
                         J. Chem. Phys. 152, 184102 (2020)
                               doi:10.1063/5.0004997

                                      AUTHORS
                                      -------
     E. Apra, E. J. Bylaska, N. Govind, K. Kowalski, M. Valiev, W. A. de Jong,
      T. P. Straatsma, H. J. J. van Dam, D. Wang, T. L. Windus, N. P. Bauman,
       A. Panyala, J. Hammond, J. Autschbach, K. Bhaskaran-Nair, J. Brabec,
    K. Lopata, S. A. Fischer, S. Krishnamoorthy, M. Jacquelin, W. Ma, M. Klemm,
       O. Villa, Y. Chen, V. Anisimov, F. Aquino, S. Hirata, M. T. Hackler,
           Eric Hermes, L. Jensen, J. E. Moore, J. C. Becca, V. Konjkov,
            D. Mejia-Rodriguez, T. Risthaus, M. Malagoli, A. Marenich,
   A. Otero-de-la-Roza, J. Mullin, P. Nichols, R. Peverati, J. Pittner, Y. Zhao,
        P.-D. Fan, A. Fonari, M. J. Williamson, R. J. Harrison, J. R. Rehr,
      M. Dupuis, D. Silverstein, D. M. A. Smith, J. Nieplocha, V. Tipparaju,
      M. Krishnan, B. E. Van Kuiken, A. Vazquez-Mayagoitia, M. Swart, Q. Wu,
   T. Van Voorhis, A. A. Auer, M. Nooijen, L. D. Crosby, E. Brown, G. Cisneros,
     G. I. Fann, H. Fruchtl, J. Garza, K. Hirao, R. A. Kendall, J. A. Nichols,
       K. Tsemekhman, K. Wolinski, J. Anchell, D. E. Bernholdt, P. Borowski,
       T. Clark, D. Clerc, H. Dachsel, M. J. O. Deegan, K. Dyall, D. Elwood,
      E. Glendening, M. Gutowski, A. C. Hess, J. Jaffe, B. G. Johnson, J. Ju,
        R. Kobayashi, R. Kutteh, Z. Lin, R. Littlefield, X. Long, B. Meng,
      T. Nakajima, S. Niu, L. Pollack, M. Rosing, K. Glaesemann, G. Sandrone,
      M. Stave, H. Taylor, G. Thomas, J. H. van Lenthe, A. T. Wong, Z. Zhang.

 Total times  cpu:     1184.9s     wall:     1066.9s
