 argument  1 = CC(=C)Cl_mol_1_conformer_0.nw



============================== echo of input deck ==============================
start

title "Molecule conformer 0"

memory total 4000 mb

echo
geometry units angstroms
   C     -0.0205    -0.8810    -0.7210
   C     -0.3635     0.3646     0.0396
   C      0.4560     0.8329     0.9853
   Cl    -1.8596     1.2193    -0.3157
   H      0.0747    -1.7373    -0.0202
   H      0.9389    -0.7408    -1.2624
   H     -0.8153    -1.1134    -1.4603
   H      0.2049     1.7350     1.5342
   H      1.3844     0.3208     1.2204
end


basis spherical
* library 6-311G
end

driver
  maxiter 500
  xyz final
end

relativistic
  zora on
  zora:cutoff_NMR 1d-8
  zora:cutoff 1d-30
end

dft
  direct
  grid fine
  xc B3LYP
  mult 1
  maxiter 1500
  noprint "final vectors analysis" multipole
end

task dft optimize

task dft freq

property
  shielding 5 5 6 7 8 9
end

cosmo
   solvent cdcl3
end

task dft property
================================================================================


                                         
                                         


             Northwest Computational Chemistry Package (NWChem) 7.0.2
             --------------------------------------------------------


                    Environmental Molecular Sciences Laboratory
                       Pacific Northwest National Laboratory
                                Richland, WA 99352

                              Copyright (c) 1994-2020
                       Pacific Northwest National Laboratory
                            Battelle Memorial Institute

             NWChem is an open-source computational chemistry package
                        distributed under the terms of the
                      Educational Community License (ECL) 2.0
             A copy of the license is included with this distribution
                              in the LICENSE.TXT file

                                  ACKNOWLEDGMENT
                                  --------------

            This software and its documentation were developed at the
            EMSL at Pacific Northwest National Laboratory, a multiprogram
            national laboratory, operated for the U.S. Department of Energy
            by Battelle under Contract Number DE-AC05-76RL01830. Support
            for this work was provided by the Department of Energy Office
            of Biological and Environmental Research, Office of Basic
            Energy Sciences, and the Office of Advanced Scientific Computing.


           Job information
           ---------------

    hostname        = ponder
    program         = nwchem
    date            = Tue Aug  6 11:20:12 2024

    compiled        = Sat_Apr_09_17:12:10_2022
    source          = /build/nwchem-f1f4gx/nwchem-7.0.2/build-openmpi
    nwchem branch   = 7.0.2
    nwchem revision = N/A
    ga revision     = 5.8.1
    use scalapack   = T
    input           = CC(=C)Cl_mol_1_conformer_0.nw
    prefix          = CC(=C)Cl_mol_1_conformer_0.
    data base       = ./CC(=C)Cl_mol_1_conformer_0.db
    status          = startup
    nproc           =       40
    time left       =     -1s



           Memory information
           ------------------

    heap     =  131071994 doubles =   1000.0 Mbytes
    stack    =  131071999 doubles =   1000.0 Mbytes
    global   =  262144000 doubles =   2000.0 Mbytes (distinct from heap & stack)
    total    =  524287993 doubles =   4000.0 Mbytes
    verify   = yes
    hardfail = no 


           Directory information
           ---------------------

  0 permanent = .
  0 scratch   = .




                                NWChem Input Module
                                -------------------


                               Molecule conformer 0
                               --------------------

 Scaling coordinates for geometry "geometry" by  1.889725989
 (inverse scale =  0.529177249)

 CS  symmetry detected

          ------
          auto-z
          ------
  no constraints, skipping    0.0000000000000000     
  no constraints, skipping    0.0000000000000000     


                             Geometry "geometry" -> ""
                             -------------------------

 Output coordinates in angstroms (scale by  1.889725989 to convert to a.u.)

  No.       Tag          Charge          X              Y              Z
 ---- ---------------- ---------- -------------- -------------- --------------
    1 C                    6.0000    -1.11605723     1.28385363     0.00000000
    2 C                    6.0000     0.10377226     0.41224780     0.00000000
    3 C                    6.0000     1.32634930     0.95126453     0.00000000
    4 Cl                  17.0000    -0.07488841    -1.33793669     0.00000000
    5 H                    1.0000    -1.12129143     1.92616959    -0.90594077
    6 H                    1.0000    -1.12129143     1.92616959     0.90594077
    7 H                    1.0000    -2.03540576     0.66169645     0.00000000
    8 H                    1.0000     2.20756337     0.31755436     0.00000000
    9 H                    1.0000     1.45914229     2.02913790     0.00000000

      Atomic Mass 
      ----------- 

      C                 12.000000
      Cl                34.968850
      H                  1.007825


 Effective nuclear repulsion energy (a.u.)     147.8112983985

            Nuclear Dipole moment (a.u.) 
            ----------------------------
        X                 Y               Z
 ---------------- ---------------- ----------------
    -0.0000000000     0.0000000000     0.0000000000

      Symmetry information
      --------------------

 Group name             Cs        
 Group number              2
 Group order               2
 No. of unique centers     8

      Symmetry unique atoms

     1    2    3    4    5    7    8    9



                                Z-matrix (autoz)
                                -------- 

 Units are Angstrom for bonds and degrees for angles

      Type          Name      I     J     K     L     M      Value
      ----------- --------  ----- ----- ----- ----- ----- ----------
    1 Stretch                  1     2                       1.49923
    2 Stretch                  1     5                       1.11055
    3 Stretch                  1     6                       1.11055
    4 Stretch                  1     7                       1.11008
    5 Stretch                  2     3                       1.33613
    6 Stretch                  2     4                       1.75928
    7 Stretch                  3     8                       1.08542
    8 Stretch                  3     9                       1.08602
    9 Bend                     1     2     3               120.66103
   10 Bend                     1     2     4               119.71835
   11 Bend                     2     1     5               109.88206
   12 Bend                     2     1     6               109.88206
   13 Bend                     2     1     7               110.36536
   14 Bend                     2     3     8               120.48684
   15 Bend                     2     3     9               120.81539
   16 Bend                     3     2     4               119.62062
   17 Bend                     5     1     6               109.32459
   18 Bend                     5     1     7               108.67825
   19 Bend                     6     1     7               108.67825
   20 Bend                     8     3     9               118.69776
   21 Torsion                  1     2     3     8         180.00000
   22 Torsion                  1     2     3     9           0.00000
   23 Torsion                  3     2     1     5          60.16509
   24 Torsion                  3     2     1     6         -60.16509
   25 Torsion                  3     2     1     7         180.00000
   26 Torsion                  4     2     1     5        -119.83491
   27 Torsion                  4     2     1     6         119.83491
   28 Torsion                  4     2     1     7           0.00000
   29 Torsion                  4     2     3     8           0.00000
   30 Torsion                  4     2     3     9         180.00000


            XYZ format geometry
            -------------------
     9
 geometry
 C                    -1.11605723     1.28385363     0.00000000
 C                     0.10377226     0.41224780     0.00000000
 C                     1.32634930     0.95126453     0.00000000
 Cl                   -0.07488841    -1.33793669     0.00000000
 H                    -1.12129143     1.92616959    -0.90594077
 H                    -1.12129143     1.92616959     0.90594077
 H                    -2.03540576     0.66169645     0.00000000
 H                     2.20756337     0.31755436     0.00000000
 H                     1.45914229     2.02913790     0.00000000

 ==============================================================================
                                internuclear distances
 ------------------------------------------------------------------------------
       center one      |      center two      | atomic units |  angstroms
 ------------------------------------------------------------------------------
    2 C                |   1 C                |     2.83313  |     1.49923
    3 C                |   2 C                |     2.52491  |     1.33613
    4 Cl               |   2 C                |     3.32456  |     1.75928
    5 H                |   1 C                |     2.09864  |     1.11055
    6 H                |   1 C                |     2.09864  |     1.11055
    7 H                |   1 C                |     2.09775  |     1.11008
    8 H                |   3 C                |     2.05114  |     1.08542
    9 H                |   3 C                |     2.05229  |     1.08602
 ------------------------------------------------------------------------------
                         number of included internuclear distances:          8
 ==============================================================================



 ==============================================================================
                                 internuclear angles
 ------------------------------------------------------------------------------
        center 1       |       center 2       |       center 3       |  degrees
 ------------------------------------------------------------------------------
    2 C                |   1 C                |   5 H                |   109.88
    2 C                |   1 C                |   6 H                |   109.88
    2 C                |   1 C                |   7 H                |   110.37
    5 H                |   1 C                |   6 H                |   109.32
    5 H                |   1 C                |   7 H                |   108.68
    6 H                |   1 C                |   7 H                |   108.68
    1 C                |   2 C                |   3 C                |   120.66
    1 C                |   2 C                |   4 Cl               |   119.72
    3 C                |   2 C                |   4 Cl               |   119.62
    2 C                |   3 C                |   8 H                |   120.49
    2 C                |   3 C                |   9 H                |   120.82
    8 H                |   3 C                |   9 H                |   118.70
 ------------------------------------------------------------------------------
                            number of included internuclear angles:         12
 ==============================================================================





 Summary of "ao basis" -> "" (spherical)
 ------------------------------------------------------------------------------
       Tag                 Description            Shells   Functions and Types
 ---------------- ------------------------------  ------  ---------------------
 *                           6-311G                   on all atoms 




                           NWChem Geometry Optimization
                           ----------------------------




                               Molecule conformer 0


  no constraints, skipping    0.0000000000000000     
 maximum gradient threshold         (gmax) =   0.000450
 rms gradient threshold             (grms) =   0.000300
 maximum cartesian step threshold   (xmax) =   0.001800
 rms cartesian step threshold       (xrms) =   0.001200
 fixed trust radius                (trust) =   0.300000
 maximum step size to saddle      (sadstp) =   0.100000
 energy precision                  (eprec) =   5.0D-06
 maximum number of steps          (nptopt) =  500
 initial hessian option           (inhess) =    0
 line search option               (linopt) =    1
 hessian update option            (modupd) =    1
 saddle point option              (modsad) =    0
 initial eigen-mode to follow     (moddir) =    0
 initial variable to follow       (vardir) =    0
 follow first negative mode     (firstneg) =    T
 apply conjugacy                    (opcg) =    F
 source of zmatrix                         =   autoz   


          -------------------
          Energy Minimization
          -------------------


 Names of Z-matrix variables 
    1              2              3              4              5         
    6              7              8              9             10         
   11             12             13             14             15         
   16             17             18             19             20         
   21             22             23             24             25         
   26             27             28             29             30         

 Variables with the same non-blank name are constrained to be equal


 Using diagonal initial Hessian 
 Scaling for Hessian diagonals: bonds = 1.00  angles = 0.25  torsions = 0.10

          --------
          Step   0
          --------


                         Geometry "geometry" -> "geometry"
                         ---------------------------------

 Output coordinates in angstroms (scale by  1.889725989 to convert to a.u.)

  No.       Tag          Charge          X              Y              Z
 ---- ---------------- ---------- -------------- -------------- --------------
    1 C                    6.0000    -1.11605723     1.28385363     0.00000000
    2 C                    6.0000     0.10377226     0.41224780     0.00000000
    3 C                    6.0000     1.32634930     0.95126453     0.00000000
    4 Cl                  17.0000    -0.07488841    -1.33793669     0.00000000
    5 H                    1.0000    -1.12129143     1.92616959    -0.90594077
    6 H                    1.0000    -1.12129143     1.92616959     0.90594077
    7 H                    1.0000    -2.03540576     0.66169645     0.00000000
    8 H                    1.0000     2.20756337     0.31755436     0.00000000
    9 H                    1.0000     1.45914229     2.02913790     0.00000000

      Atomic Mass 
      ----------- 

      C                 12.000000
      Cl                34.968850
      H                  1.007825


 Effective nuclear repulsion energy (a.u.)     147.8112983985

            Nuclear Dipole moment (a.u.) 
            ----------------------------
        X                 Y               Z
 ---------------- ---------------- ----------------
    -0.0000000000     0.0000000000     0.0000000000

      Symmetry information
      --------------------

 Group name             Cs        
 Group number              2
 Group order               2
 No. of unique centers     8

      Symmetry unique atoms

     1    2    3    4    5    7    8    9


                                 NWChem DFT Module
                                 -----------------


                               Molecule conformer 0


                      Basis "ao basis" -> "ao basis" (spherical)
                      -----
  C (Carbon)
  ----------
            Exponent  Coefficients 
       -------------- ---------------------------------------------------------
  1 S  4.56324000E+03  0.001967
  1 S  6.82024000E+02  0.015231
  1 S  1.54973000E+02  0.076127
  1 S  4.44553000E+01  0.260801
  1 S  1.30290000E+01  0.616462
  1 S  1.82773000E+00  0.221006

  2 S  2.09642000E+01  0.114660
  2 S  4.80331000E+00  0.919999
  2 S  1.45933000E+00 -0.003031

  3 P  2.09642000E+01  0.040249
  3 P  4.80331000E+00  0.237594
  3 P  1.45933000E+00  0.815854

  4 S  4.83456000E-01  1.000000

  5 P  4.83456000E-01  1.000000

  6 S  1.45585000E-01  1.000000

  7 P  1.45585000E-01  1.000000

  Cl (Chlorine)
  -------------
            Exponent  Coefficients 
       -------------- ---------------------------------------------------------
  1 S  1.05819000E+05  0.000738
  1 S  1.58720000E+04  0.005718
  1 S  3.61965000E+03  0.029495
  1 S  1.03080000E+03  0.117286
  1 S  3.39908000E+02  0.362949
  1 S  1.24538000E+02  0.584149

  2 S  1.24538000E+02  0.134177
  2 S  4.95135000E+01  0.624250
  2 S  2.08056000E+01  0.291756

  3 S  6.58346000E+00  1.000000

  4 S  2.56468000E+00  1.000000

  5 S  5.59763000E-01  1.000000

  6 S  1.83273000E-01  1.000000

  7 P  5.89776000E+02  0.002391
  7 P  1.39849000E+02  0.018504
  7 P  4.51413000E+01  0.081377
  7 P  1.68733000E+01  0.221552
  7 P  6.74110000E+00  0.772569

  8 P  6.74110000E+00 -1.572244
  8 P  2.77152000E+00  0.992389

  9 P  1.02387000E+00  1.000000

 10 P  3.81368000E-01  1.000000

 11 P  1.09437000E-01  1.000000

  H (Hydrogen)
  ------------
            Exponent  Coefficients 
       -------------- ---------------------------------------------------------
  1 S  3.38650000E+01  0.025494
  1 S  5.09479000E+00  0.190373
  1 S  1.15879000E+00  0.852161

  2 S  3.25840000E-01  1.000000

  3 S  1.02741000E-01  1.000000



 Summary of "ao basis" -> "ao basis" (spherical)
 ------------------------------------------------------------------------------
       Tag                 Description            Shells   Functions and Types
 ---------------- ------------------------------  ------  ---------------------
 C                           6-311G                  7       13   4s3p
 Cl                          6-311G                 11       21   6s5p
 H                           6-311G                  3        3   3s




 Summary of "ao basis" -> "ao basis" (spherical)
 ------------------------------------------------------------------------------
       Tag                 Description            Shells   Functions and Types
 ---------------- ------------------------------  ------  ---------------------
 C                           6-311G                  7       13   4s3p
 Cl                          6-311G                 11       21   6s5p
 H                           6-311G                  3        3   3s


      Symmetry analysis of basis
      --------------------------

        a'         58
        a"         17

  Caching 1-el integrals 

            General Information
            -------------------
          SCF calculation type: DFT
          Wavefunction type:  closed shell.
          No. of atoms     :     9
          No. of electrons :    40
           Alpha electrons :    20
            Beta electrons :    20
          Charge           :     0
          Spin multiplicity:     1
          Use of symmetry is: on ; symmetry adaption is: on 
          Maximum number of iterations: ***
          This is a Direct SCF calculation.
          AO basis - number of functions:    75
                     number of shells:    47
          Convergence on energy requested:  1.00D-06
          Convergence on density requested:  1.00D-05
          Convergence on gradient requested:  5.00D-04

              XC Information
              --------------
                         B3LYP Method XC Potential
                     Hartree-Fock (Exact) Exchange  0.200          
                        Slater Exchange Functional  0.800 local    
                    Becke 1988 Exchange Functional  0.720 non-local
              Lee-Yang-Parr Correlation Functional  0.810          
                  VWN I RPA Correlation Functional  0.190 local    

             Grid Information
             ----------------
          Grid used for XC integration:  fine      
          Radial quadrature: Mura-Knowles        
          Angular quadrature: Lebedev. 
          Tag              B.-S. Rad. Rad. Pts. Rad. Cut. Ang. Pts.
          ---              ---------- --------- --------- ---------
          C                   0.70       70          11.0       590
          Cl                  1.00      123          11.0       770
          H                   0.35       60          12.0       590
          Grid pruning is: on 
          Number of quadrature shells:   573
          Spatial weights used:  Erf1

          Convergence Information
          -----------------------
          Convergence aids based upon iterative change in 
          total energy or number of iterations. 
          Levelshifting, if invoked, occurs when the 
          HOMO/LUMO gap drops below (HL_TOL):  1.00D-02
          DIIS, if invoked, will attempt to extrapolate 
          using up to (NFOCK): 10 stored Fock matrices.

                    Damping( 0%)  Levelshifting(0.5)       DIIS
                  --------------- ------------------- ---------------
          dE  on:    start            ASAP                start   
          dE off:    2 iters        *** iters           *** iters 


      Screening Tolerance Information
      -------------------------------
          Density screening/tol_rho:  1.00D-10
          AO Gaussian exp screening on grid/accAOfunc:  14
          CD Gaussian exp screening on grid/accCDfunc:  20
          XC Gaussian exp screening on grid/accXCfunc:  20
          Schwarz screening/accCoul:  1.00D-08

          Performing ZORA calculations
          ----------------------------


      Superposition of Atomic Density Guess
      -------------------------------------

 Sum of atomic energies:        -574.98156165

 Read atomic ZORA corrections from ./CC(=C)Cl_mol_1_conformer_0.zora_sf

 dft_zora_read: failed to open./CC(=C)Cl_mol_1_conformer_0.zora_sf
 Forcing recalculation of ZORA corrections
       Generating atomic ZORA corrections
       ----------------------------------

 In dft_scf:: zora:Knucl= F

 Grid_pts file          = ./CC(=C)Cl_mol_1_conformer_0.gridpts.00
 Record size in doubles =  12289        No. of grid_pts per rec  =   3070
 Max. records in memory =      5        Max. recs in file   =     13517


 Wrote atomic ZORA corrections to ./CC(=C)Cl_mol_1_conformer_0.zora_sf


      Superposition of Atomic Density Guess
      -------------------------------------

 Sum of atomic energies:        -574.98156165

      Non-variational initial energy
      ------------------------------

 Total energy =    -577.070997
 1-e energy   =   -1082.061585
 2-e energy   =     357.179289
 HOMO         =      -0.276823
 LUMO         =       0.026844


      Symmetry analysis of molecular orbitals - initial
      -------------------------------------------------

  Numbering of irreducible representations: 

     1 a'          2 a"      

  Orbital symmetries:

     1 a'          2 a'          3 a'          4 a'          5 a'      
     6 a'          7 a'          8 a"          9 a'         10 a'      
    11 a'         12 a'         13 a'         14 a'         15 a"      
    16 a'         17 a"         18 a'         19 a'         20 a"      
    21 a"         22 a'         23 a'         24 a'         25 a'      
    26 a'         27 a"         28 a'         29 a'         30 a"      

   Time after variat. SCF:      6.7
   Time prior to 1st pass:      6.7

           Memory utilization after 1st SCF pass: 
           Heap Space remaining (MW):      131.01           131006386
          Stack Space remaining (MW):      131.06           131060060

   convergence    iter        energy       DeltaE   RMS-Dens  Diis-err    time
 ---------------- ----- ----------------- --------- --------- ---------  ------
 d= 0,ls=0.0,diis     1   -579.6365873001 -7.27D+02  1.48D-02  3.77D+01     9.8
 d= 0,ls=0.0,diis     2   -579.6388086977 -2.22D-03  2.10D-02  8.00D-01    11.7
 d= 0,ls=0.0,diis     3   -579.4783700402  1.60D-01  1.30D-02  1.80D+00    14.4
 d= 0,ls=0.0,diis     4   -579.7334942546 -2.55D-01  1.49D-03  1.33D-02    16.7
 d= 0,ls=0.0,diis     5   -579.7348928325 -1.40D-03  7.51D-04  3.04D-03    18.8
  Resetting Diis
 d= 0,ls=0.0,diis     6   -579.7352996094 -4.07D-04  9.45D-05  6.31D-05    21.2
 d= 0,ls=0.0,diis     7   -579.7353055326 -5.92D-06  5.21D-05  4.17D-06    23.5
 d= 0,ls=0.0,diis     8   -579.7353052265  3.06D-07  2.59D-05  6.78D-06    25.7
 d= 0,ls=0.0,diis     9   -579.7353060829 -8.56D-07  4.05D-06  2.29D-07    28.2
(nogshift,skip_gshiftAOev,done_Fji)=( 1,F,F)


         Total DFT energy =     -579.735306082873
      One electron energy =    -1087.839932930843
           Coulomb energy =      406.775835217089
    Exchange-Corr. energy =      -46.482506767642
 Nuclear repulsion energy =      147.811298398523

       Scaling correction =        0.810184665952

 Numeric. integr. density =       40.000000525499

     Total iterative time =     21.5s



                  Occupations of the irreducible representations
                  ----------------------------------------------

                     irrep           alpha         beta
                     --------     --------     --------
                     a'               16.0         16.0
                     a"                4.0          4.0


 center of mass
 --------------
 x =   0.01327503 y =  -0.20146599 z =   0.00000000

 moments of inertia (a.u.)
 ------------------
         386.516570555337          -0.000000004207           0.000000000000
          -0.000000004207         184.981527262684           0.000000000000
           0.000000000000           0.000000000000         559.682861819581

            General Information
            -------------------
          SCF calculation type: DFT
          Wavefunction type:  closed shell.
          No. of atoms     :     9
          No. of electrons :    40
           Alpha electrons :    20
            Beta electrons :    20
          Charge           :     0
          Spin multiplicity:     1
          Use of symmetry is: on ; symmetry adaption is: on 
          Maximum number of iterations: ***
          This is a Direct SCF calculation.
          AO basis - number of functions:    75
                     number of shells:    47
          Convergence on energy requested:  1.00D-06
          Convergence on density requested:  1.00D-05
          Convergence on gradient requested:  5.00D-04

              XC Information
              --------------
                         B3LYP Method XC Potential
                     Hartree-Fock (Exact) Exchange  0.200          
                        Slater Exchange Functional  0.800 local    
                    Becke 1988 Exchange Functional  0.720 non-local
              Lee-Yang-Parr Correlation Functional  0.810          
                  VWN I RPA Correlation Functional  0.190 local    

             Grid Information
             ----------------
          Grid used for XC integration:  fine      
          Radial quadrature: Mura-Knowles        
          Angular quadrature: Lebedev. 
          Tag              B.-S. Rad. Rad. Pts. Rad. Cut. Ang. Pts.
          ---              ---------- --------- --------- ---------
          C                   0.70       70          11.0       590
          Cl                  1.00      123          11.0       770
          H                   0.35       60          12.0       590
          Grid pruning is: on 
          Number of quadrature shells:   573
          Spatial weights used:  Erf1

          Convergence Information
          -----------------------
          Convergence aids based upon iterative change in 
          total energy or number of iterations. 
          Levelshifting, if invoked, occurs when the 
          HOMO/LUMO gap drops below (HL_TOL):  1.00D-02
          DIIS, if invoked, will attempt to extrapolate 
          using up to (NFOCK): 10 stored Fock matrices.

                    Damping( 0%)  Levelshifting(0.5)       DIIS
                  --------------- ------------------- ---------------
          dE  on:    start            ASAP                start   
          dE off:    2 iters        *** iters           *** iters 


      Screening Tolerance Information
      -------------------------------
          Density screening/tol_rho:  1.00D-10
          AO Gaussian exp screening on grid/accAOfunc:  14
          CD Gaussian exp screening on grid/accCDfunc:  20
          XC Gaussian exp screening on grid/accXCfunc:  20
          Schwarz screening/accCoul:  1.00D-08



                            NWChem DFT Gradient Module
                            --------------------------


                               Molecule conformer 0



  charge          =   0.00
  wavefunction    = closed shell

  Using symmetry


                         DFT ENERGY GRADIENTS

    atom               coordinates                        gradient
                 x          y          z           x          y          z
   1 C      -2.109042   2.426132   0.000000    0.019162   0.004646   0.000000
   2 C       0.196101   0.779035   0.000000   -0.021283  -0.044471   0.000000
   3 C       2.506437   1.797629   0.000000   -0.002368   0.012885   0.000000
   4 Cl     -0.141519  -2.528334   0.000000    0.007626   0.027427   0.000000
   5 H      -2.118934   3.639933  -1.711980    0.002278   0.006208  -0.010853
   6 H      -2.118934   3.639933   1.711980    0.002278   0.006208   0.010853
   7 H      -3.846359   1.250425   0.000000   -0.008482  -0.011133   0.000000
   8 H       4.171690   0.600091   0.000000    0.000325  -0.005091   0.000000
   9 H       2.757379   3.834515   0.000000    0.000463   0.003321   0.000000

                 ----------------------------------------
                 |  Time  |  1-e(secs)   |  2-e(secs)   |
                 ----------------------------------------
                 |  CPU   |       0.00   |       0.10   |
                 ----------------------------------------
                 |  WALL  |       0.00   |       0.10   |
                 ----------------------------------------
  no constraints, skipping    0.0000000000000000     

@ Step       Energy      Delta E   Gmax     Grms     Xrms     Xmax   Walltime
@ ---- ---------------- -------- -------- -------- -------- -------- --------
@    0    -579.73530608  0.0D+00  0.02806  0.00728  0.00000  0.00000     30.5
                                                                    



                                Z-matrix (autoz)
                                -------- 

 Units are Angstrom for bonds and degrees for angles

      Type          Name      I     J     K     L     M      Value     Gradient
      ----------- --------  ----- ----- ----- ----- ----- ---------- ----------
    1 Stretch                  1     2                       1.49923   -0.00895
    2 Stretch                  1     5                       1.11055    0.01243
    3 Stretch                  1     6                       1.11055    0.01243
    4 Stretch                  1     7                       1.11008    0.01326
    5 Stretch                  2     3                       1.33613    0.00304
    6 Stretch                  2     4                       1.75928   -0.02806
    7 Stretch                  3     8                       1.08542    0.00324
    8 Stretch                  3     9                       1.08602    0.00335
    9 Bend                     1     2     3               120.66103   -0.00955
   10 Bend                     1     2     4               119.71835    0.00900
   11 Bend                     2     1     5               109.88206   -0.00117
   12 Bend                     2     1     6               109.88206   -0.00117
   13 Bend                     2     1     7               110.36536   -0.00295
   14 Bend                     2     3     8               120.48684   -0.00287
   15 Bend                     2     3     9               120.81539    0.00147
   16 Bend                     3     2     4               119.62062    0.00055
   17 Bend                     5     1     6               109.32459    0.00144
   18 Bend                     5     1     7               108.67825    0.00198
   19 Bend                     6     1     7               108.67825    0.00198
   20 Bend                     8     3     9               118.69776    0.00141
   21 Torsion                  1     2     3     8         180.00000   -0.00000
   22 Torsion                  1     2     3     9           0.00000    0.00000
   23 Torsion                  3     2     1     5          60.16509    0.00015
   24 Torsion                  3     2     1     6         -60.16509   -0.00015
   25 Torsion                  3     2     1     7         180.00000    0.00000
   26 Torsion                  4     2     1     5        -119.83491    0.00015
   27 Torsion                  4     2     1     6         119.83491   -0.00015
   28 Torsion                  4     2     1     7           0.00000    0.00000
   29 Torsion                  4     2     3     8           0.00000    0.00000
   30 Torsion                  4     2     3     9         180.00000    0.00000

  no constraints, skipping    0.0000000000000000     
  no constraints, skipping    0.0000000000000000     
  no constraints, skipping    0.0000000000000000     
  no constraints, skipping    0.0000000000000000     
  no constraints, skipping    0.0000000000000000     
  no constraints, skipping    0.0000000000000000     
  no constraints, skipping    0.0000000000000000     
  no constraints, skipping    0.0000000000000000     

                                 NWChem DFT Module
                                 -----------------


                               Molecule conformer 0




 Summary of "ao basis" -> "ao basis" (spherical)
 ------------------------------------------------------------------------------
       Tag                 Description            Shells   Functions and Types
 ---------------- ------------------------------  ------  ---------------------
 C                           6-311G                  7       13   4s3p
 Cl                          6-311G                 11       21   6s5p
 H                           6-311G                  3        3   3s


      Symmetry analysis of basis
      --------------------------

        a'         58
        a"         17

  Caching 1-el integrals 

            General Information
            -------------------
          SCF calculation type: DFT
          Wavefunction type:  closed shell.
          No. of atoms     :     9
          No. of electrons :    40
           Alpha electrons :    20
            Beta electrons :    20
          Charge           :     0
          Spin multiplicity:     1
          Use of symmetry is: on ; symmetry adaption is: on 
          Maximum number of iterations: ***
          This is a Direct SCF calculation.
          AO basis - number of functions:    75
                     number of shells:    47
          Convergence on energy requested:  1.00D-06
          Convergence on density requested:  1.00D-05
          Convergence on gradient requested:  5.00D-04

              XC Information
              --------------
                         B3LYP Method XC Potential
                     Hartree-Fock (Exact) Exchange  0.200          
                        Slater Exchange Functional  0.800 local    
                    Becke 1988 Exchange Functional  0.720 non-local
              Lee-Yang-Parr Correlation Functional  0.810          
                  VWN I RPA Correlation Functional  0.190 local    

             Grid Information
             ----------------
          Grid used for XC integration:  fine      
          Radial quadrature: Mura-Knowles        
          Angular quadrature: Lebedev. 
          Tag              B.-S. Rad. Rad. Pts. Rad. Cut. Ang. Pts.
          ---              ---------- --------- --------- ---------
          C                   0.70       70          11.0       590
          Cl                  1.00      123          11.0       770
          H                   0.35       60          12.0       590
          Grid pruning is: on 
          Number of quadrature shells:   573
          Spatial weights used:  Erf1

          Convergence Information
          -----------------------
          Convergence aids based upon iterative change in 
          total energy or number of iterations. 
          Levelshifting, if invoked, occurs when the 
          HOMO/LUMO gap drops below (HL_TOL):  1.00D-02
          DIIS, if invoked, will attempt to extrapolate 
          using up to (NFOCK): 10 stored Fock matrices.

                    Damping( 0%)  Levelshifting(0.5)       DIIS
                  --------------- ------------------- ---------------
          dE  on:    start            ASAP                start   
          dE off:    2 iters        *** iters           *** iters 


      Screening Tolerance Information
      -------------------------------
          Density screening/tol_rho:  1.00D-10
          AO Gaussian exp screening on grid/accAOfunc:  14
          CD Gaussian exp screening on grid/accCDfunc:  20
          XC Gaussian exp screening on grid/accXCfunc:  20
          Schwarz screening/accCoul:  1.00D-08

          Performing ZORA calculations
          ----------------------------


      Superposition of Atomic Density Guess
      -------------------------------------

 Sum of atomic energies:        -574.98156165

 Read atomic ZORA corrections from ./CC(=C)Cl_mol_1_conformer_0.zora_sf

 Forcing recalculation of ZORA corrections
       Generating atomic ZORA corrections
       ----------------------------------

 In dft_scf:: zora:Knucl= F

 Grid_pts file          = ./CC(=C)Cl_mol_1_conformer_0.gridpts.00
 Record size in doubles =  12289        No. of grid_pts per rec  =   3070
 Max. records in memory =      5        Max. recs in file   =     13517


 Wrote atomic ZORA corrections to ./CC(=C)Cl_mol_1_conformer_0.zora_sf


 Loading old vectors from job with title :

Molecule conformer 0


      Symmetry analysis of molecular orbitals - initial
      -------------------------------------------------

  Numbering of irreducible representations: 

     1 a'          2 a"      

  Orbital symmetries:

     1 a'          2 a'          3 a'          4 a'          5 a'      
     6 a'          7 a"          8 a'          9 a'         10 a'      
    11 a'         12 a'         13 a'         14 a'         15 a"      
    16 a'         17 a'         18 a"         19 a'         20 a"      
    21 a"         22 a'         23 a'         24 a'         25 a'      
    26 a'         27 a"         28 a'         29 a'         30 a"      

   Time after variat. SCF:     37.0
   Time prior to 1st pass:     37.0

           Memory utilization after 1st SCF pass: 
           Heap Space remaining (MW):      131.01           131006386
          Stack Space remaining (MW):      131.06           131060060

   convergence    iter        energy       DeltaE   RMS-Dens  Diis-err    time
 ---------------- ----- ----------------- --------- --------- ---------  ------
 d= 0,ls=0.0,diis     1   -579.7378440606 -7.27D+02  2.02D-03  9.18D-03    39.0
 d= 0,ls=0.0,diis     2   -579.7395297925 -1.69D-03  5.76D-04  1.87D-03    41.3
 d= 0,ls=0.0,diis     3   -579.7395505133 -2.07D-05  3.72D-04  1.67D-03    43.4
 d= 0,ls=0.0,diis     4   -579.7397402693 -1.90D-04  1.08D-04  1.39D-04    45.4
 d= 0,ls=0.0,diis     5   -579.7397588563 -1.86D-05  1.61D-05  1.54D-06    47.6
 d= 0,ls=0.0,diis     6   -579.7397590505 -1.94D-07  3.72D-06  2.01D-08    49.7
(nogshift,skip_gshiftAOev,done_Fji)=( 1,F,F)


         Total DFT energy =     -579.739759050462
      One electron energy =    -1085.813417521854
           Coulomb energy =      405.785493051212
    Exchange-Corr. energy =      -46.487807784600
 Nuclear repulsion energy =      146.775973204780

       Scaling correction =        0.810131209855

 Numeric. integr. density =       40.000000526148

     Total iterative time =     12.8s



                  Occupations of the irreducible representations
                  ----------------------------------------------

                     irrep           alpha         beta
                     --------     --------     --------
                     a'               16.0         16.0
                     a"                4.0          4.0


 center of mass
 --------------
 x =  -0.00344793 y =  -0.18607610 z =   0.00000000

 moments of inertia (a.u.)
 ------------------
         384.806393878855          -6.420145169117           0.000000000000
          -6.420145169117         194.464266584066           0.000000000000
           0.000000000000           0.000000000000         567.993673457400
 Line search: 
     step= 1.00 grad=-7.2D-03 hess= 2.7D-03 energy=   -579.739759 mode=downhill
 new step= 1.32                   predicted energy=   -579.740036
  no constraints, skipping    0.0000000000000000     
  no constraints, skipping    0.0000000000000000     
  no constraints, skipping    0.0000000000000000     
  no constraints, skipping    0.0000000000000000     
  no constraints, skipping    0.0000000000000000     
  no constraints, skipping    0.0000000000000000     
  no constraints, skipping    0.0000000000000000     
  no constraints, skipping    0.0000000000000000     

          --------
          Step   1
          --------


                         Geometry "geometry" -> "geometry"
                         ---------------------------------

 Output coordinates in angstroms (scale by  1.889725989 to convert to a.u.)

  No.       Tag          Charge          X              Y              Z
 ---- ---------------- ---------- -------------- -------------- --------------
    1 C                    6.0000    -1.14202122     1.27910475     0.00000000
    2 C                    6.0000     0.13727563     0.46707324     0.00000000
    3 C                    6.0000     1.37985178     0.94734973     0.00000000
    4 Cl                  17.0000    -0.12141465    -1.32798190     0.00000000
    5 H                    1.0000    -1.19503512     1.91285872    -0.87842119
    6 H                    1.0000    -1.19503512     1.91285872     0.87842119
    7 H                    1.0000    -2.02799139     0.65749528     0.00000000
    8 H                    1.0000     2.24842571     0.30726069     0.00000000
    9 H                    1.0000     1.54383734     2.01413794     0.00000000

      Atomic Mass 
      ----------- 

      C                 12.000000
      Cl                34.968850
      H                  1.007825


 Effective nuclear repulsion energy (a.u.)     146.4747750496

            Nuclear Dipole moment (a.u.) 
            ----------------------------
        X                 Y               Z
 ---------------- ---------------- ----------------
    -0.8299874863     0.7371544755     0.0000000000

      Symmetry information
      --------------------

 Group name             Cs        
 Group number              2
 Group order               2
 No. of unique centers     8

      Symmetry unique atoms

     1    2    3    4    5    7    8    9


                                 NWChem DFT Module
                                 -----------------


                               Molecule conformer 0




 Summary of "ao basis" -> "ao basis" (spherical)
 ------------------------------------------------------------------------------
       Tag                 Description            Shells   Functions and Types
 ---------------- ------------------------------  ------  ---------------------
 C                           6-311G                  7       13   4s3p
 Cl                          6-311G                 11       21   6s5p
 H                           6-311G                  3        3   3s


      Symmetry analysis of basis
      --------------------------

        a'         58
        a"         17

  Caching 1-el integrals 

            General Information
            -------------------
          SCF calculation type: DFT
          Wavefunction type:  closed shell.
          No. of atoms     :     9
          No. of electrons :    40
           Alpha electrons :    20
            Beta electrons :    20
          Charge           :     0
          Spin multiplicity:     1
          Use of symmetry is: on ; symmetry adaption is: on 
          Maximum number of iterations: ***
          This is a Direct SCF calculation.
          AO basis - number of functions:    75
                     number of shells:    47
          Convergence on energy requested:  1.00D-06
          Convergence on density requested:  1.00D-05
          Convergence on gradient requested:  5.00D-04

              XC Information
              --------------
                         B3LYP Method XC Potential
                     Hartree-Fock (Exact) Exchange  0.200          
                        Slater Exchange Functional  0.800 local    
                    Becke 1988 Exchange Functional  0.720 non-local
              Lee-Yang-Parr Correlation Functional  0.810          
                  VWN I RPA Correlation Functional  0.190 local    

             Grid Information
             ----------------
          Grid used for XC integration:  fine      
          Radial quadrature: Mura-Knowles        
          Angular quadrature: Lebedev. 
          Tag              B.-S. Rad. Rad. Pts. Rad. Cut. Ang. Pts.
          ---              ---------- --------- --------- ---------
          C                   0.70       70          11.0       590
          Cl                  1.00      123          11.0       770
          H                   0.35       60          12.0       590
          Grid pruning is: on 
          Number of quadrature shells:   573
          Spatial weights used:  Erf1

          Convergence Information
          -----------------------
          Convergence aids based upon iterative change in 
          total energy or number of iterations. 
          Levelshifting, if invoked, occurs when the 
          HOMO/LUMO gap drops below (HL_TOL):  1.00D-02
          DIIS, if invoked, will attempt to extrapolate 
          using up to (NFOCK): 10 stored Fock matrices.

                    Damping( 0%)  Levelshifting(0.5)       DIIS
                  --------------- ------------------- ---------------
          dE  on:    start            ASAP                start   
          dE off:    2 iters        *** iters           *** iters 


      Screening Tolerance Information
      -------------------------------
          Density screening/tol_rho:  1.00D-10
          AO Gaussian exp screening on grid/accAOfunc:  14
          CD Gaussian exp screening on grid/accCDfunc:  20
          XC Gaussian exp screening on grid/accXCfunc:  20
          Schwarz screening/accCoul:  1.00D-08

          Performing ZORA calculations
          ----------------------------


      Superposition of Atomic Density Guess
      -------------------------------------

 Sum of atomic energies:        -574.98156165

 Read atomic ZORA corrections from ./CC(=C)Cl_mol_1_conformer_0.zora_sf

 Forcing recalculation of ZORA corrections
       Generating atomic ZORA corrections
       ----------------------------------

 In dft_scf:: zora:Knucl= F

 Grid_pts file          = ./CC(=C)Cl_mol_1_conformer_0.gridpts.00
 Record size in doubles =  12289        No. of grid_pts per rec  =   3070
 Max. records in memory =      5        Max. recs in file   =     13517


 Wrote atomic ZORA corrections to ./CC(=C)Cl_mol_1_conformer_0.zora_sf


 Loading old vectors from job with title :

Molecule conformer 0


      Symmetry analysis of molecular orbitals - initial
      -------------------------------------------------

  Numbering of irreducible representations: 

     1 a'          2 a"      

  Orbital symmetries:

     1 a'          2 a'          3 a'          4 a'          5 a'      
     6 a'          7 a"          8 a'          9 a'         10 a'      
    11 a'         12 a'         13 a'         14 a'         15 a"      
    16 a'         17 a'         18 a"         19 a'         20 a"      
    21 a"         22 a'         23 a'         24 a'         25 a'      
    26 a"         27 a'         28 a'         29 a'         30 a"      

   Time after variat. SCF:     57.2
   Time prior to 1st pass:     57.2

           Memory utilization after 1st SCF pass: 
           Heap Space remaining (MW):      131.01           131006386
          Stack Space remaining (MW):      131.06           131060060

   convergence    iter        energy       DeltaE   RMS-Dens  Diis-err    time
 ---------------- ----- ----------------- --------- --------- ---------  ------
 d= 0,ls=0.0,diis     1   -579.7398805456 -7.26D+02  6.52D-04  9.06D-04    59.2
 d= 0,ls=0.0,diis     2   -579.7400487514 -1.68D-04  1.78D-04  1.78D-04    61.4
 d= 0,ls=0.0,diis     3   -579.7400508815 -2.13D-06  1.13D-04  1.58D-04    63.8
 d= 0,ls=0.0,diis     4   -579.7400687392 -1.79D-05  3.37D-05  1.33D-05    65.9
 d= 0,ls=0.0,diis     5   -579.7400705190 -1.78D-06  4.94D-06  1.55D-07    67.8
 d= 0,ls=0.0,diis     6   -579.7400705386 -1.96D-08  1.19D-06  1.95D-09    70.4
(nogshift,skip_gshiftAOev,done_Fji)=( 1,F,F)


         Total DFT energy =     -579.740070538601
      One electron energy =    -1085.221994528728
           Coulomb energy =      405.497202790080
    Exchange-Corr. energy =      -46.490053849557
 Nuclear repulsion energy =      146.474775049606

       Scaling correction =        0.810113803524

 Numeric. integr. density =       40.000001381133

     Total iterative time =     13.4s



                  Occupations of the irreducible representations
                  ----------------------------------------------

                     irrep           alpha         beta
                     --------     --------     --------
                     a'               16.0         16.0
                     a"                4.0          4.0


 center of mass
 --------------
 x =  -0.00932710 y =  -0.18044517 z =   0.00000000

 moments of inertia (a.u.)
 ------------------
         384.055890615992          -8.598108250559           0.000000000000
          -8.598108250559         197.530214921849           0.000000000000
           0.000000000000           0.000000000000         570.477785114369

            General Information
            -------------------
          SCF calculation type: DFT
          Wavefunction type:  closed shell.
          No. of atoms     :     9
          No. of electrons :    40
           Alpha electrons :    20
            Beta electrons :    20
          Charge           :     0
          Spin multiplicity:     1
          Use of symmetry is: on ; symmetry adaption is: on 
          Maximum number of iterations: ***
          This is a Direct SCF calculation.
          AO basis - number of functions:    75
                     number of shells:    47
          Convergence on energy requested:  1.00D-06
          Convergence on density requested:  1.00D-05
          Convergence on gradient requested:  5.00D-04

              XC Information
              --------------
                         B3LYP Method XC Potential
                     Hartree-Fock (Exact) Exchange  0.200          
                        Slater Exchange Functional  0.800 local    
                    Becke 1988 Exchange Functional  0.720 non-local
              Lee-Yang-Parr Correlation Functional  0.810          
                  VWN I RPA Correlation Functional  0.190 local    

             Grid Information
             ----------------
          Grid used for XC integration:  fine      
          Radial quadrature: Mura-Knowles        
          Angular quadrature: Lebedev. 
          Tag              B.-S. Rad. Rad. Pts. Rad. Cut. Ang. Pts.
          ---              ---------- --------- --------- ---------
          C                   0.70       70          11.0       590
          Cl                  1.00      123          11.0       770
          H                   0.35       60          12.0       590
          Grid pruning is: on 
          Number of quadrature shells:   573
          Spatial weights used:  Erf1

          Convergence Information
          -----------------------
          Convergence aids based upon iterative change in 
          total energy or number of iterations. 
          Levelshifting, if invoked, occurs when the 
          HOMO/LUMO gap drops below (HL_TOL):  1.00D-02
          DIIS, if invoked, will attempt to extrapolate 
          using up to (NFOCK): 10 stored Fock matrices.

                    Damping( 0%)  Levelshifting(0.5)       DIIS
                  --------------- ------------------- ---------------
          dE  on:    start            ASAP                start   
          dE off:    2 iters        *** iters           *** iters 


      Screening Tolerance Information
      -------------------------------
          Density screening/tol_rho:  1.00D-10
          AO Gaussian exp screening on grid/accAOfunc:  14
          CD Gaussian exp screening on grid/accCDfunc:  20
          XC Gaussian exp screening on grid/accXCfunc:  20
          Schwarz screening/accCoul:  1.00D-08



                            NWChem DFT Gradient Module
                            --------------------------


                               Molecule conformer 0



  charge          =   0.00
  wavefunction    = closed shell

  Using symmetry


                         DFT ENERGY GRADIENTS

    atom               coordinates                        gradient
                 x          y          z           x          y          z
   1 C      -2.158107   2.417157   0.000000   -0.004280   0.004368   0.000000
   2 C       0.259413   0.882640   0.000000   -0.001114  -0.018092   0.000000
   3 C       2.607542   1.790231   0.000000    0.005940   0.006178   0.000000
   4 Cl     -0.229440  -2.509522   0.000000    0.000707   0.012017   0.000000
   5 H      -2.258289   3.614779  -1.659975   -0.000974  -0.002981   0.003711
   6 H      -2.258289   3.614779   1.659975   -0.000974  -0.002981  -0.003711
   7 H      -3.832348   1.242486   0.000000    0.000987   0.003795   0.000000
   8 H       4.248909   0.580639   0.000000   -0.000241  -0.000035   0.000000
   9 H       2.917430   3.806169   0.000000   -0.000052  -0.002268   0.000000

                 ----------------------------------------
                 |  Time  |  1-e(secs)   |  2-e(secs)   |
                 ----------------------------------------
                 |  CPU   |       0.00   |       0.10   |
                 ----------------------------------------
                 |  WALL  |       0.00   |       0.10   |
                 ----------------------------------------
  no constraints, skipping    0.0000000000000000     

  Step       Energy      Delta E   Gmax     Grms     Xrms     Xmax   Walltime
  ---- ---------------- -------- -------- -------- -------- -------- --------
@    1    -579.74007054 -4.8D-03  0.01199  0.00308  0.06461  0.15844     72.6
                                                                    



                                Z-matrix (autoz)
                                -------- 

 Units are Angstrom for bonds and degrees for angles

      Type          Name      I     J     K     L     M      Value     Gradient
      ----------- --------  ----- ----- ----- ----- ----- ---------- ----------
    1 Stretch                  1     2                       1.51525    0.00560
    2 Stretch                  1     5                       1.08447   -0.00470
    3 Stretch                  1     6                       1.08447   -0.00470
    4 Stretch                  1     7                       1.08229   -0.00299
    5 Stretch                  2     3                       1.33216    0.00666
    6 Stretch                  2     4                       1.81360   -0.01199
    7 Stretch                  3     8                       1.07895   -0.00017
    8 Stretch                  3     9                       1.07932   -0.00225
    9 Bend                     1     2     3               126.46238   -0.00045
   10 Bend                     1     2     4               114.20468   -0.00069
   11 Bend                     2     1     5               110.75969    0.00032
   12 Bend                     2     1     6               110.75969    0.00032
   13 Bend                     2     1     7               112.54068    0.00161
   14 Bend                     2     3     8               122.47957   -0.00023
   15 Bend                     2     3     9               119.87139    0.00027
   16 Bend                     3     2     4               119.33294    0.00115
   17 Bend                     5     1     6               108.19174   -0.00023
   18 Bend                     5     1     7               107.19509   -0.00108
   19 Bend                     6     1     7               107.19509   -0.00108
   20 Bend                     8     3     9               117.64904   -0.00004
   21 Torsion                  1     2     3     8         180.00000   -0.00000
   22 Torsion                  1     2     3     9           0.00000    0.00000
   23 Torsion                  3     2     1     5          60.02457    0.00007
   24 Torsion                  3     2     1     6         -60.02457   -0.00007
   25 Torsion                  3     2     1     7         180.00000    0.00000
   26 Torsion                  4     2     1     5        -119.97543    0.00007
   27 Torsion                  4     2     1     6         119.97543   -0.00007
   28 Torsion                  4     2     1     7           0.00000   -0.00000
   29 Torsion                  4     2     3     8           0.00000   -0.00000
   30 Torsion                  4     2     3     9         180.00000   -0.00000

  no constraints, skipping    0.0000000000000000     
  no constraints, skipping    0.0000000000000000     
  no constraints, skipping    0.0000000000000000     
  no constraints, skipping    0.0000000000000000     
  no constraints, skipping    0.0000000000000000     
  no constraints, skipping    0.0000000000000000     
  no constraints, skipping    0.0000000000000000     
  no constraints, skipping    0.0000000000000000     

                                 NWChem DFT Module
                                 -----------------


                               Molecule conformer 0




 Summary of "ao basis" -> "ao basis" (spherical)
 ------------------------------------------------------------------------------
       Tag                 Description            Shells   Functions and Types
 ---------------- ------------------------------  ------  ---------------------
 C                           6-311G                  7       13   4s3p
 Cl                          6-311G                 11       21   6s5p
 H                           6-311G                  3        3   3s


      Symmetry analysis of basis
      --------------------------

        a'         58
        a"         17

  Caching 1-el integrals 

            General Information
            -------------------
          SCF calculation type: DFT
          Wavefunction type:  closed shell.
          No. of atoms     :     9
          No. of electrons :    40
           Alpha electrons :    20
            Beta electrons :    20
          Charge           :     0
          Spin multiplicity:     1
          Use of symmetry is: on ; symmetry adaption is: on 
          Maximum number of iterations: ***
          This is a Direct SCF calculation.
          AO basis - number of functions:    75
                     number of shells:    47
          Convergence on energy requested:  1.00D-06
          Convergence on density requested:  1.00D-05
          Convergence on gradient requested:  5.00D-04

              XC Information
              --------------
                         B3LYP Method XC Potential
                     Hartree-Fock (Exact) Exchange  0.200          
                        Slater Exchange Functional  0.800 local    
                    Becke 1988 Exchange Functional  0.720 non-local
              Lee-Yang-Parr Correlation Functional  0.810          
                  VWN I RPA Correlation Functional  0.190 local    

             Grid Information
             ----------------
          Grid used for XC integration:  fine      
          Radial quadrature: Mura-Knowles        
          Angular quadrature: Lebedev. 
          Tag              B.-S. Rad. Rad. Pts. Rad. Cut. Ang. Pts.
          ---              ---------- --------- --------- ---------
          C                   0.70       70          11.0       590
          Cl                  1.00      123          11.0       770
          H                   0.35       60          12.0       590
          Grid pruning is: on 
          Number of quadrature shells:   573
          Spatial weights used:  Erf1

          Convergence Information
          -----------------------
          Convergence aids based upon iterative change in 
          total energy or number of iterations. 
          Levelshifting, if invoked, occurs when the 
          HOMO/LUMO gap drops below (HL_TOL):  1.00D-02
          DIIS, if invoked, will attempt to extrapolate 
          using up to (NFOCK): 10 stored Fock matrices.

                    Damping( 0%)  Levelshifting(0.5)       DIIS
                  --------------- ------------------- ---------------
          dE  on:    start            ASAP                start   
          dE off:    2 iters        *** iters           *** iters 


      Screening Tolerance Information
      -------------------------------
          Density screening/tol_rho:  1.00D-10
          AO Gaussian exp screening on grid/accAOfunc:  14
          CD Gaussian exp screening on grid/accCDfunc:  20
          XC Gaussian exp screening on grid/accXCfunc:  20
          Schwarz screening/accCoul:  1.00D-08

          Performing ZORA calculations
          ----------------------------


      Superposition of Atomic Density Guess
      -------------------------------------

 Sum of atomic energies:        -574.98156165

 Read atomic ZORA corrections from ./CC(=C)Cl_mol_1_conformer_0.zora_sf

 Forcing recalculation of ZORA corrections
       Generating atomic ZORA corrections
       ----------------------------------

 In dft_scf:: zora:Knucl= F

 Grid_pts file          = ./CC(=C)Cl_mol_1_conformer_0.gridpts.00
 Record size in doubles =  12289        No. of grid_pts per rec  =   3070
 Max. records in memory =      5        Max. recs in file   =     13517


 Wrote atomic ZORA corrections to ./CC(=C)Cl_mol_1_conformer_0.zora_sf


 Loading old vectors from job with title :

Molecule conformer 0


      Symmetry analysis of molecular orbitals - initial
      -------------------------------------------------

  Numbering of irreducible representations: 

     1 a'          2 a"      

  Orbital symmetries:

     1 a'          2 a'          3 a'          4 a'          5 a'      
     6 a'          7 a"          8 a'          9 a'         10 a'      
    11 a'         12 a'         13 a'         14 a'         15 a"      
    16 a'         17 a'         18 a"         19 a'         20 a"      
    21 a"         22 a'         23 a'         24 a'         25 a'      
    26 a"         27 a'         28 a'         29 a'         30 a"      

   Time after variat. SCF:     78.8
   Time prior to 1st pass:     78.8

           Memory utilization after 1st SCF pass: 
           Heap Space remaining (MW):      131.01           131006386
          Stack Space remaining (MW):      131.06           131060060

   convergence    iter        energy       DeltaE   RMS-Dens  Diis-err    time
 ---------------- ----- ----------------- --------- --------- ---------  ------
 d= 0,ls=0.0,diis     1   -579.7404726539 -7.26D+02  6.17D-04  1.09D-03    80.8
 d= 0,ls=0.0,diis     2   -579.7406763449 -2.04D-04  1.87D-04  6.14D-05    83.1
 d= 0,ls=0.0,diis     3   -579.7406661928  1.02D-05  1.06D-04  1.43D-04    85.7
 d= 0,ls=0.0,diis     4   -579.7406844024 -1.82D-05  1.97D-05  3.08D-06    88.2
 d= 0,ls=0.0,diis     5   -579.7406847734 -3.71D-07  4.16D-06  3.63D-07    91.1
(nogshift,skip_gshiftAOev,done_Fji)=( 1,F,F)


         Total DFT energy =     -579.740684773383
      One electron energy =    -1084.399431486946
           Coulomb energy =      405.091358147246
    Exchange-Corr. energy =      -46.484151247140
 Nuclear repulsion energy =      146.051539813457

       Scaling correction =        0.810095154715

 Numeric. integr. density =       40.000001384263

     Total iterative time =     12.3s



                  Occupations of the irreducible representations
                  ----------------------------------------------

                     irrep           alpha         beta
                     --------     --------     --------
                     a'               16.0         16.0
                     a"                4.0          4.0


 center of mass
 --------------
 x =  -0.01197437 y =  -0.18560467 z =   0.00000000

 moments of inertia (a.u.)
 ------------------
         388.459327072701          -8.901194523083           0.000000000000
          -8.901194523083         197.012022191831           0.000000000000
           0.000000000000           0.000000000000         574.260541277070
 Line search: 
     step= 1.00 grad=-9.1D-04 hess= 2.9D-04 energy=   -579.740685 mode=downhill
 new step= 1.55                   predicted energy=   -579.740774
  no constraints, skipping    0.0000000000000000     
  no constraints, skipping    0.0000000000000000     
  no constraints, skipping    0.0000000000000000     
  no constraints, skipping    0.0000000000000000     
  no constraints, skipping    0.0000000000000000     
  no constraints, skipping    0.0000000000000000     
  no constraints, skipping    0.0000000000000000     
  no constraints, skipping    0.0000000000000000     

          --------
          Step   2
          --------


                         Geometry "geometry" -> "geometry"
                         ---------------------------------

 Output coordinates in angstroms (scale by  1.889725989 to convert to a.u.)

  No.       Tag          Charge          X              Y              Z
 ---- ---------------- ---------- -------------- -------------- --------------
    1 C                    6.0000    -1.14125416     1.28349264     0.00000000
    2 C                    6.0000     0.13628968     0.48664487     0.00000000
    3 C                    6.0000     1.37484854     0.94625467     0.00000000
    4 Cl                  17.0000    -0.12460862    -1.34489995     0.00000000
    5 H                    1.0000    -1.19564224     1.92175575    -0.88469667
    6 H                    1.0000    -1.19564224     1.92175575     0.88469667
    7 H                    1.0000    -2.01293897     0.63664227     0.00000000
    8 H                    1.0000     2.23984415     0.30233338     0.00000000
    9 H                    1.0000     1.54699682     2.01617778     0.00000000

      Atomic Mass 
      ----------- 

      C                 12.000000
      Cl                34.968850
      H                  1.007825


 Effective nuclear repulsion energy (a.u.)     145.8236396626

            Nuclear Dipole moment (a.u.) 
            ----------------------------
        X                 Y               Z
 ---------------- ---------------- ----------------
    -0.9759010774     0.4416646246     0.0000000000

      Symmetry information
      --------------------

 Group name             Cs        
 Group number              2
 Group order               2
 No. of unique centers     8

      Symmetry unique atoms

     1    2    3    4    5    7    8    9


                                 NWChem DFT Module
                                 -----------------


                               Molecule conformer 0




 Summary of "ao basis" -> "ao basis" (spherical)
 ------------------------------------------------------------------------------
       Tag                 Description            Shells   Functions and Types
 ---------------- ------------------------------  ------  ---------------------
 C                           6-311G                  7       13   4s3p
 Cl                          6-311G                 11       21   6s5p
 H                           6-311G                  3        3   3s


      Symmetry analysis of basis
      --------------------------

        a'         58
        a"         17

  Caching 1-el integrals 

            General Information
            -------------------
          SCF calculation type: DFT
          Wavefunction type:  closed shell.
          No. of atoms     :     9
          No. of electrons :    40
           Alpha electrons :    20
            Beta electrons :    20
          Charge           :     0
          Spin multiplicity:     1
          Use of symmetry is: on ; symmetry adaption is: on 
          Maximum number of iterations: ***
          This is a Direct SCF calculation.
          AO basis - number of functions:    75
                     number of shells:    47
          Convergence on energy requested:  1.00D-06
          Convergence on density requested:  1.00D-05
          Convergence on gradient requested:  5.00D-04

              XC Information
              --------------
                         B3LYP Method XC Potential
                     Hartree-Fock (Exact) Exchange  0.200          
                        Slater Exchange Functional  0.800 local    
                    Becke 1988 Exchange Functional  0.720 non-local
              Lee-Yang-Parr Correlation Functional  0.810          
                  VWN I RPA Correlation Functional  0.190 local    

             Grid Information
             ----------------
          Grid used for XC integration:  fine      
          Radial quadrature: Mura-Knowles        
          Angular quadrature: Lebedev. 
          Tag              B.-S. Rad. Rad. Pts. Rad. Cut. Ang. Pts.
          ---              ---------- --------- --------- ---------
          C                   0.70       70          11.0       590
          Cl                  1.00      123          11.0       770
          H                   0.35       60          12.0       590
          Grid pruning is: on 
          Number of quadrature shells:   573
          Spatial weights used:  Erf1

          Convergence Information
          -----------------------
          Convergence aids based upon iterative change in 
          total energy or number of iterations. 
          Levelshifting, if invoked, occurs when the 
          HOMO/LUMO gap drops below (HL_TOL):  1.00D-02
          DIIS, if invoked, will attempt to extrapolate 
          using up to (NFOCK): 10 stored Fock matrices.

                    Damping( 0%)  Levelshifting(0.5)       DIIS
                  --------------- ------------------- ---------------
          dE  on:    start            ASAP                start   
          dE off:    2 iters        *** iters           *** iters 


      Screening Tolerance Information
      -------------------------------
          Density screening/tol_rho:  1.00D-10
          AO Gaussian exp screening on grid/accAOfunc:  14
          CD Gaussian exp screening on grid/accCDfunc:  20
          XC Gaussian exp screening on grid/accXCfunc:  20
          Schwarz screening/accCoul:  1.00D-08

          Performing ZORA calculations
          ----------------------------


      Superposition of Atomic Density Guess
      -------------------------------------

 Sum of atomic energies:        -574.98156165

 Read atomic ZORA corrections from ./CC(=C)Cl_mol_1_conformer_0.zora_sf

 Forcing recalculation of ZORA corrections
       Generating atomic ZORA corrections
       ----------------------------------

 In dft_scf:: zora:Knucl= F

 Grid_pts file          = ./CC(=C)Cl_mol_1_conformer_0.gridpts.00
 Record size in doubles =  12289        No. of grid_pts per rec  =   3070
 Max. records in memory =      5        Max. recs in file   =     13517


 Wrote atomic ZORA corrections to ./CC(=C)Cl_mol_1_conformer_0.zora_sf


 Loading old vectors from job with title :

Molecule conformer 0


      Symmetry analysis of molecular orbitals - initial
      -------------------------------------------------

  Numbering of irreducible representations: 

     1 a'          2 a"      

  Orbital symmetries:

     1 a'          2 a'          3 a'          4 a'          5 a'      
     6 a'          7 a"          8 a'          9 a'         10 a'      
    11 a'         12 a'         13 a'         14 a'         15 a"      
    16 a'         17 a'         18 a"         19 a'         20 a"      
    21 a"         22 a'         23 a'         24 a'         25 a'      
    26 a"         27 a'         28 a'         29 a'         30 a"      

   Time after variat. SCF:     97.8
   Time prior to 1st pass:     97.8

           Memory utilization after 1st SCF pass: 
           Heap Space remaining (MW):      131.01           131006386
          Stack Space remaining (MW):      131.06           131060060

   convergence    iter        energy       DeltaE   RMS-Dens  Diis-err    time
 ---------------- ----- ----------------- --------- --------- ---------  ------
 d= 0,ls=0.0,diis     1   -579.7407217305 -7.26D+02  3.36D-04  3.23D-04   100.3
 d= 0,ls=0.0,diis     2   -579.7407824540 -6.07D-05  9.87D-05  1.71D-05   102.3
 d= 0,ls=0.0,diis     3   -579.7407799170  2.54D-06  5.48D-05  3.78D-05   104.5
 d= 0,ls=0.0,diis     4   -579.7407846865 -4.77D-06  1.12D-05  1.01D-06   106.3
 d= 0,ls=0.0,diis     5   -579.7407848083 -1.22D-07  2.43D-06  1.10D-07   108.7
(nogshift,skip_gshiftAOev,done_Fji)=( 1,F,F)


         Total DFT energy =     -579.740784808316
      One electron energy =    -1083.955751996488
           Coulomb energy =      404.872430209187
    Exchange-Corr. energy =      -46.481102683660
 Nuclear repulsion energy =      145.823639662645

       Scaling correction =        0.810084794744

 Numeric. integr. density =       40.000001285637

     Total iterative time =     11.1s



                  Occupations of the irreducible representations
                  ----------------------------------------------

                     irrep           alpha         beta
                     --------     --------     --------
                     a'               16.0         16.0
                     a"                4.0          4.0


 center of mass
 --------------
 x =  -0.01345107 y =  -0.18848123 z =   0.00000000

 moments of inertia (a.u.)
 ------------------
         390.917177190829          -9.067453368065           0.000000000000
          -9.067453368065         196.711677444561           0.000000000000
           0.000000000000           0.000000000000         576.361250531010

            General Information
            -------------------
          SCF calculation type: DFT
          Wavefunction type:  closed shell.
          No. of atoms     :     9
          No. of electrons :    40
           Alpha electrons :    20
            Beta electrons :    20
          Charge           :     0
          Spin multiplicity:     1
          Use of symmetry is: on ; symmetry adaption is: on 
          Maximum number of iterations: ***
          This is a Direct SCF calculation.
          AO basis - number of functions:    75
                     number of shells:    47
          Convergence on energy requested:  1.00D-06
          Convergence on density requested:  1.00D-05
          Convergence on gradient requested:  5.00D-04

              XC Information
              --------------
                         B3LYP Method XC Potential
                     Hartree-Fock (Exact) Exchange  0.200          
                        Slater Exchange Functional  0.800 local    
                    Becke 1988 Exchange Functional  0.720 non-local
              Lee-Yang-Parr Correlation Functional  0.810          
                  VWN I RPA Correlation Functional  0.190 local    

             Grid Information
             ----------------
          Grid used for XC integration:  fine      
          Radial quadrature: Mura-Knowles        
          Angular quadrature: Lebedev. 
          Tag              B.-S. Rad. Rad. Pts. Rad. Cut. Ang. Pts.
          ---              ---------- --------- --------- ---------
          C                   0.70       70          11.0       590
          Cl                  1.00      123          11.0       770
          H                   0.35       60          12.0       590
          Grid pruning is: on 
          Number of quadrature shells:   573
          Spatial weights used:  Erf1

          Convergence Information
          -----------------------
          Convergence aids based upon iterative change in 
          total energy or number of iterations. 
          Levelshifting, if invoked, occurs when the 
          HOMO/LUMO gap drops below (HL_TOL):  1.00D-02
          DIIS, if invoked, will attempt to extrapolate 
          using up to (NFOCK): 10 stored Fock matrices.

                    Damping( 0%)  Levelshifting(0.5)       DIIS
                  --------------- ------------------- ---------------
          dE  on:    start            ASAP                start   
          dE off:    2 iters        *** iters           *** iters 


      Screening Tolerance Information
      -------------------------------
          Density screening/tol_rho:  1.00D-10
          AO Gaussian exp screening on grid/accAOfunc:  14
          CD Gaussian exp screening on grid/accCDfunc:  20
          XC Gaussian exp screening on grid/accXCfunc:  20
          Schwarz screening/accCoul:  1.00D-08



                            NWChem DFT Gradient Module
                            --------------------------


                               Molecule conformer 0



  charge          =   0.00
  wavefunction    = closed shell

  Using symmetry


                         DFT ENERGY GRADIENTS

    atom               coordinates                        gradient
                 x          y          z           x          y          z
   1 C      -2.156658   2.425449   0.000000   -0.000932   0.000361   0.000000
   2 C       0.257550   0.919625   0.000000    0.005523  -0.001799   0.000000
   3 C       2.598087   1.788162   0.000000   -0.004373  -0.001190   0.000000
   4 Cl     -0.235476  -2.541492   0.000000   -0.000341   0.001919   0.000000
   5 H      -2.259436   3.631592  -1.671834   -0.000011   0.000184  -0.000375
   6 H      -2.259436   3.631592   1.671834   -0.000011   0.000184   0.000375
   7 H      -3.803903   1.203079   0.000000    0.000555  -0.000037   0.000000
   8 H       4.232692   0.571327   0.000000   -0.000281   0.000136   0.000000
   9 H       2.923400   3.810024   0.000000   -0.000128   0.000242   0.000000

                 ----------------------------------------
                 |  Time  |  1-e(secs)   |  2-e(secs)   |
                 ----------------------------------------
                 |  CPU   |       0.00   |       0.10   |
                 ----------------------------------------
                 |  WALL  |       0.00   |       0.10   |
                 ----------------------------------------
  no constraints, skipping    0.0000000000000000     

  Step       Energy      Delta E   Gmax     Grms     Xrms     Xmax   Walltime
  ---- ---------------- -------- -------- -------- -------- -------- --------
@    2    -579.74078481 -7.1D-04  0.00477  0.00097  0.01518  0.03935    111.0
[...]
dia1(k,t,iat1,ispin)=(  2,  3,  8,  1)=(    -0.00125878,    -0.00125878) ppm
dia1(k,t,iat1,ispin)=(  3,  1,  8,  1)=(     0.00139802,     0.00139802) ppm
dia1(k,t,iat1,ispin)=(  3,  2,  8,  1)=(     0.00024800,     0.00024800) ppm
dia1(k,t,iat1,ispin)=(  3,  3,  8,  1)=(    15.12766657,    15.12766657) ppm
(dia2,par1)(k,t,iat1,spin)=(  1,  1,  8,  1)=(     1.52260129,     1.52260129,    -0.17275691,    -0.17275691) ppm
(dia2,par1)(k,t,iat1,spin)=(  2,  1,  8,  1)=(     3.23921032,     3.23921032,    -0.10801390,    -0.10801390) ppm
(dia2,par1)(k,t,iat1,spin)=(  3,  1,  8,  1)=(     0.00026407,     0.00026407,    -0.00123669,    -0.00123669) ppm
(dia2,par1)(k,t,iat1,spin)=(  1,  2,  8,  1)=(     3.30901722,     3.30901722,    -0.61496226,    -0.61496226) ppm
(dia2,par1)(k,t,iat1,spin)=(  2,  2,  8,  1)=(     3.95751382,     3.95751382,    -0.44220020,    -0.44220020) ppm
(dia2,par1)(k,t,iat1,spin)=(  3,  2,  8,  1)=(     0.00000594,     0.00000594,     0.00166495,     0.00166495) ppm
(dia2,par1)(k,t,iat1,spin)=(  1,  3,  8,  1)=(    -0.00293039,    -0.00293039,    -0.00004959,    -0.00004959) ppm
(dia2,par1)(k,t,iat1,spin)=(  2,  3,  8,  1)=(     0.00035250,     0.00035250,    -0.00005925,    -0.00005925) ppm
(dia2,par1)(k,t,iat1,spin)=(  3,  3,  8,  1)=(     6.02630929,     6.02630929,    -0.73629756,    -0.73629756) ppm
dia1(k,t,iat1,ispin)=(  1,  1,  9,  1)=(    22.44645467,    22.44645467) ppm
dia1(k,t,iat1,ispin)=(  1,  2,  9,  1)=(     6.34823309,     6.34823309) ppm
dia1(k,t,iat1,ispin)=(  1,  3,  9,  1)=(    -0.00061654,    -0.00061654) ppm
dia1(k,t,iat1,ispin)=(  2,  1,  9,  1)=(     6.44015467,     6.44015467) ppm
dia1(k,t,iat1,ispin)=(  2,  2,  9,  1)=(    39.77963683,    39.77963683) ppm
dia1(k,t,iat1,ispin)=(  2,  3,  9,  1)=(    -0.00075382,    -0.00075382) ppm
dia1(k,t,iat1,ispin)=(  3,  1,  9,  1)=(     0.00114492,     0.00114492) ppm
dia1(k,t,iat1,ispin)=(  3,  2,  9,  1)=(     0.00042693,     0.00042693) ppm
dia1(k,t,iat1,ispin)=(  3,  3,  9,  1)=(    16.14765336,    16.14765336) ppm
(dia2,par1)(k,t,iat1,spin)=(  1,  1,  9,  1)=(     5.80648958,     5.80648958,     0.37751786,     0.37751786) ppm
(dia2,par1)(k,t,iat1,spin)=(  2,  1,  9,  1)=(    -0.81492008,    -0.81492008,     0.42631582,     0.42631582) ppm
(dia2,par1)(k,t,iat1,spin)=(  3,  1,  9,  1)=(    -0.00052387,    -0.00052387,    -0.00032633,    -0.00032633) ppm
(dia2,par1)(k,t,iat1,spin)=(  1,  2,  9,  1)=(    -1.37512701,    -1.37512701,    -1.31200752,    -1.31200752) ppm
(dia2,par1)(k,t,iat1,spin)=(  2,  2,  9,  1)=(     0.11565856,     0.11565856,    -0.93792946,    -0.93792946) ppm
(dia2,par1)(k,t,iat1,spin)=(  3,  2,  9,  1)=(     0.00210130,     0.00210130,     0.00103202,     0.00103202) ppm
(dia2,par1)(k,t,iat1,spin)=(  1,  3,  9,  1)=(     0.00000302,     0.00000302,     0.00004699,     0.00004699) ppm
(dia2,par1)(k,t,iat1,spin)=(  2,  3,  9,  1)=(    -0.00080995,    -0.00080995,    -0.00014109,    -0.00014109) ppm
(dia2,par1)(k,t,iat1,spin)=(  3,  3,  9,  1)=(     5.80435275,     5.80435275,     1.19913888,     1.19913888) ppm

 Wrote ZORA NMR data to ./CC(=C)Cl_mol_1_conformer_0.zora_nmrcs

(nogshift,skip_gshiftAOev,done_Fji)=( 1,F,T)


         Total DFT energy =     -579.746116671976
      One electron energy =    -1083.869129512363
           Coulomb energy =      404.775477883789
    Exchange-Corr. energy =      -46.478632710884
 Nuclear repulsion energy =      145.575758786928

             COSMO energy =        0.250408880554

       Scaling correction =        0.810205793906

 Numeric. integr. density =       40.000001335247

     Total iterative time =     50.3s


                                   COSMO solvation results
                                   -----------------------

                 gas phase energy =      -579.740921233439
                 sol phase energy =      -579.746116671976
 (electrostatic) solvation energy =         0.005195438537 (    3.26 kcal/mol)

 center of mass
 --------------
 x =  -0.00895245 y =  -0.18912293 z =   0.00000000

 moments of inertia (a.u.)
 ------------------
         392.291179252551          -8.084846652151           0.000000000000
          -8.084846652151         197.407276410962           0.000000000000
           0.000000000000           0.000000000000         578.455373195193

            Scalar ZORA NMR Shielding
            -------------------------


          -----------------------------------------
          Chemical Shielding Tensors (GIAO, in ppm)
          -----------------------------------------


 Read ZORA NMR data from ./CC(=C)Cl_mol_1_conformer_0.zora_nmrcs

    0 giaofock schwarz done =      91.94%
    0 giaofock schwarz done =      86.35%
                                NWChem CPHF Module
                                ------------------



 solvent parameters
 solvname_short: cdcl3   
 solvname_long:  unknown                            
 dielec:       78.4000
 dielecinf:     1.7769

          ---------------
          -cosmo- solvent
          ---------------
 Cosmo: York-Karplus, doi: 10.1021/jp992097l
 dielectric constant -eps-     =  78.40
 screen = (eps-1)/(eps    )    =   0.98724
 surface charge correction     = lagrangian
 -lineq- algorithm             =   0
 -bem- low  level              =   2
 -bem- from -octahedral-
 gaussian surface charge width =   0.98000
 degree of switching           =   1.00000
 switching function tolerance  =   0.00010
 atomic radii = 
 --------------
    1  6.000  2.000
    2  6.000  2.000
    3  6.000  2.000
    4 17.000  2.050
    5  1.000  1.300
    6  1.000  1.300
    7  1.000  1.300
    8  1.000  1.300
    9  1.000  1.300

 solvent accessible surface
 --------------------------

 ---------- ATOMIC COORDINATES (A.U.) ------------ VDWR(ANG.) --
     1   -2.16242664    2.42590855    0.00000000     2.000
     2    0.25236928    0.93111041    0.00000000     2.000
     3    2.60424291    1.78996744    0.00000000     2.000
     4   -0.22385614   -2.54737888    0.00000000     2.050
     5   -2.26825435    3.63254662   -1.67001410     1.300
     6   -2.26825435    3.63254662    1.67001410     1.300
     7   -3.81085517    1.20319927    0.00000000     1.300
     8    4.23131970    0.56221827    0.00000000     1.300
     9    2.94253440    3.80924001    0.00000000     1.300
 number of segments per atom =         32
 number of   points per atom =         32
 atom (   nspa,  nppa )
 ----------------------
    1 (     18,     0 )       0
    2 (     10,     0 )       0
    3 (     20,     0 )       0
    4 (     26,     0 )       0
    5 (     15,     0 )       0
    6 (     15,     0 )       0
    7 (     12,     0 )       0
    8 (     14,     0 )       0
    9 (     14,     0 )       0
 number of -cosmo- surface points =      144
 molecular surface =    115.066 angstrom**2
 molecular volume  =     70.269 angstrom**3
 G(cav/disp)       =      1.435 kcal/mol
 ...... end of -cosmo- initialization ......


  scftype          =     RHF 
  nclosed          =       20
  nopen            =        0
  variables        =     1100
  # of vectors     =        3
  tolerance        = 0.10D-03
  level shift      = 0.00D+00
  max iterations   =       50
  max subspace     =       30

 SCF residual:    1.6679891547239305E-005


Iterative solution of linear equations
  No. of variables     1100
  No. of equations        3
  Maximum subspace       30
        Iterations       50
       Convergence  1.0D-04
        Start time   1012.8


   iter   nsub   residual    time
   ----  ------  --------  ---------
     1      3    4.90D-01    1015.3
     2      6    2.40D-02    1017.8
     3      9    1.79D-03    1020.5
     4     12    5.59D-05    1023.2

 Wrote CPHF data to ./CC(=C)Cl_mol_1_conformer_0.shieldcphf

 Calc. par tensor-> zora
      Atom:    1  H 
        Diamagnetic
     26.4472     -3.5954      2.1561
     -3.5954     30.7558     -7.7167
      2.1561     -7.7167     31.0515

        Paramagnetic
      3.1564      1.2147     -0.9880
      1.2147      0.2204      3.6851
     -0.9880      3.6851     -1.1957

        Total Shielding Tensor
     29.6037     -2.3807      1.1681
     -2.3807     30.9762     -4.0316
      1.1681     -4.0316     29.8558

           isotropic =      30.1452
          anisotropy =       8.1705

          Principal Components and Axis System
                 1           2           3
               35.5922     28.6739     26.1696

      1        -0.3961      0.8838      0.2491
      2         0.7114      0.1238      0.6918
      3        -0.5806     -0.4512      0.6777



      Atom:    2  H 
        Diamagnetic
     26.4472     -3.5949     -2.1546
     -3.5949     30.7551      7.7151
     -2.1546      7.7151     31.0513

        Paramagnetic
      3.1536      1.2154      0.9866
      1.2154      0.2188     -3.6825
      0.9866     -3.6825     -1.1953

        Total Shielding Tensor
     29.6008     -2.3796     -1.1681
     -2.3796     30.9739      4.0326
     -1.1681      4.0326     29.8559

           isotropic =      30.1436
          anisotropy =       8.1709

          Principal Components and Axis System
                 1           2           3
               35.5908     28.6720     26.1679

      1        -0.3958      0.8839     -0.2490
      2         0.7113      0.1236     -0.6919
      3         0.5808      0.4510      0.6777



      Atom:    3  H 
        Diamagnetic
     36.8415      2.5885      0.0017
      2.5885     29.2514     -0.0012
      0.0017     -0.0012     21.7188

        Paramagnetic
     -1.3057     -2.1248     -0.0020
     -2.1248      2.1648      0.0020
     -0.0020      0.0020      4.6928

        Total Shielding Tensor
     35.5358      0.4637     -0.0003
      0.4637     31.4162      0.0008
     -0.0003      0.0008     26.4116

           isotropic =      31.1212
          anisotropy =       6.6992

          Principal Components and Axis System
                 1           2           3
               35.5873     31.3646     26.4116

      1         0.9939     -0.1105      0.0000
      2         0.1105      0.9939     -0.0002
      3        -0.0000      0.0002      1.0000



      Atom:    4  H 
        Diamagnetic
     38.6113     -4.7203     -0.0012
     -4.7203     28.9308     -0.0003
     -0.0012     -0.0003     21.1540

        Paramagnetic
     -7.4542      6.9264      0.0014
      6.9264     -4.2862      0.0001
      0.0014      0.0001      4.6487

        Total Shielding Tensor
     31.1571      2.2061      0.0001
      2.2061     24.6446     -0.0002
      0.0001     -0.0002     25.8026

           isotropic =      27.2014
          anisotropy =       6.9489

          Principal Components and Axis System
                 1           2           3
               31.8340     25.8026     23.9676

      1         0.9560      0.0000     -0.2934
      2         0.2934     -0.0001      0.9560
      3         0.0000      1.0000      0.0001



      Atom:    5  H 
        Diamagnetic
     28.2529      5.2992      0.0000
      5.2992     39.8953      0.0005
      0.0000      0.0005     21.9520

        Paramagnetic
      1.3613     -2.6972     -0.0002
     -2.6972    -14.2967     -0.0011
     -0.0002     -0.0011      3.8975

        Total Shielding Tensor
     29.6142      2.6020     -0.0002
      2.6020     25.5986     -0.0006
     -0.0002     -0.0006     25.8495

           isotropic =      27.0207
          anisotropy =       5.8084

          Principal Components and Axis System
                 1           2           3
               30.8930     25.8495     24.3198

      1         0.8975      0.0002     -0.4411
      2         0.4411     -0.0003      0.8975
      3        -0.0001      1.0000      0.0003




 Task  times  cpu:       81.3s     wall:       74.0s


                                NWChem Input Module
                                -------------------


 Summary of allocated global arrays
-----------------------------------
  array 0 => double precision sf 1(75,75),  handle: -987 
  array 1 => double precision sf 1(75,75),  handle: -986 
  array 2 => double precision sf 1(75,75),  handle: -985 
  array 3 => double precision sf 1(75,75),  handle: -984 
  array 4 => double precision sf 1(75,75),  handle: -983 
  array 5 => double precision sf 1(75,75),  handle: -982 
  array 6 => double precision sf 1(75,75),  handle: -981 
  array 7 => double precision sf 1(75,75),  handle: -980 
  array 8 => double precision sf 1(75,75),  handle: -979 
  array 9 => double precision sf 1(75,75),  handle: -978 
  array 10 => double precision sf 1(75,75),  handle: -977 
  array 11 => double precision sf 1(75,75),  handle: -976 
  array 12 => double precision sf 1(75,75),  handle: -975 
  array 13 => double precision sf 1(75,75),  handle: -974 
  array 14 => double precision sf 1(75,75),  handle: -973 
  array 15 => double precision sf 1(75,75),  handle: -972 
  array 16 => double precision sf 1(75,75),  handle: -971 
  array 17 => double precision sf 1(75,75),  handle: -970 
  array 18 => double precision sf 1(75,75),  handle: -969 
  array 19 => double precision sf 1(75,75),  handle: -968 
  array 20 => double precision sf 1(75,75),  handle: -967 
  array 21 => double precision sf 1(75,75),  handle: -966 
  array 22 => double precision sf 1(75,75),  handle: -965 
  array 23 => double precision sf 1(75,75),  handle: -964 
  array 24 => double precision sf 1(75,75),  handle: -963 
  array 25 => double precision sf 1(75,75),  handle: -962 
  array 26 => double precision sf 1(75,75),  handle: -961 
  array 27 => double precision sf 1(75,75),  handle: -960 
  array 28 => double precision sf 1(75,75),  handle: -959 
  array 29 => double precision sf 1(75,75),  handle: -958 
  array 30 => double precision sf 1(75,75),  handle: -957 
  array 31 => double precision sf 1(75,75),  handle: -956 
  array 32 => double precision sf 1(75,75),  handle: -955 
  array 33 => double precision sf 1(75,75),  handle: -954 
  array 34 => double precision sf 1(75,75),  handle: -953 
  array 35 => double precision sf 1(75,75),  handle: -952 
  array 36 => double precision sf 1(75,75),  handle: -951 
  array 37 => double precision sf 1(75,75),  handle: -950 
  array 38 => double precision sf 1(75,75),  handle: -949 
  array 39 => double precision sf 1(75,75),  handle: -948 
  array 40 => double precision sf 1(75,75),  handle: -947 
  array 41 => double precision sf 1(75,75),  handle: -946 
  array 42 => double precision sf 1(75,75),  handle: -945 
  array 43 => double precision sf 1(75,75),  handle: -944 
  array 44 => double precision sf 1(75,75),  handle: -943 
  array 45 => double precision sf 1(75,75),  handle: -942 
  array 46 => double precision sf 1(75,75),  handle: -941 
  array 47 => double precision sf 1(75,75),  handle: -940 
  array 48 => double precision sf 1(75,75),  handle: -939 
  array 49 => double precision sf 1(75,75),  handle: -938 
  array 50 => double precision sf 1(75,75),  handle: -937 
  array 51 => double precision sf 1(75,75),  handle: -936 
  array 52 => double precision sf 1(75,75),  handle: -935 
  array 53 => double precision sf 1(75,75),  handle: -934 
  array 54 => double precision sf 1(75,75),  handle: -933 
  array 55 => double precision sf 1(75,75),  handle: -932 
  array 56 => double precision sf 1(75,75),  handle: -931 



                         GA Statistics for process    0
                         ------------------------------

       create   destroy   get      put      acc     scatter   gather  read&inc
calls: 8660     8298     3.32e+05 5.34e+04 7.84e+04   60        0     1.05e+04 
number of processes/call 0.00e+00 0.00e+00 0.00e+00 0.00e+00 0.00e+00
bytes total:             4.07e+08 5.82e+07 3.39e+08 4.48e+02 0.00e+00 8.37e+04
bytes remote:            3.59e+08 4.99e+07 3.10e+08 -2.24e+02 0.00e+00 0.00e+00
Max memory consumed for GA by this process: 660432 bytes

MA_summarize_allocated_blocks: starting scan ...
MA_summarize_allocated_blocks: scan completed: 0 heap blocks, 0 stack blocks
MA usage statistics:

	allocation statistics:
					      heap	     stack
					      ----	     -----
	current number of blocks	         0	         0
	maximum number of blocks	        66	        59
	current total bytes		         0	         0
	maximum total bytes		   2300808	  24872344
	maximum total K-bytes		      2301	     24873
	maximum total M-bytes		         3	        25


                                     CITATION
                                     --------
                Please cite the following reference when publishing
                           results obtained with NWChem:

          E. Apr, E. J. Bylaska, W. A. de Jong, N. Govind, K. Kowalski,
       T. P. Straatsma, M. Valiev, H. J. J. van Dam, Y. Alexeev, J. Anchell,
       V. Anisimov, F. W. Aquino, R. Atta-Fynn, J. Autschbach, N. P. Bauman,
     J. C. Becca, D. E. Bernholdt, K. Bhaskaran-Nair, S. Bogatko, P. Borowski,
        J. Boschen, J. Brabec, A. Bruner, E. Caut, Y. Chen, G. N. Chuev,
      C. J. Cramer, J. Daily, M. J. O. Deegan, T. H. Dunning Jr., M. Dupuis,
   K. G. Dyall, G. I. Fann, S. A. Fischer, A. Fonari, H. Frchtl, L. Gagliardi,
      J. Garza, N. Gawande, S. Ghosh, K. Glaesemann, A. W. Gtz, J. Hammond,
       V. Helms, E. D. Hermes, K. Hirao, S. Hirata, M. Jacquelin, L. Jensen,
   B. G. Johnson, H. Jnsson, R. A. Kendall, M. Klemm, R. Kobayashi, V. Konkov,
      S. Krishnamoorthy, M. Krishnan, Z. Lin, R. D. Lins, R. J. Littlefield,
      A. J. Logsdail, K. Lopata, W. Ma, A. V. Marenich, J. Martin del Campo,
   D. Mejia-Rodriguez, J. E. Moore, J. M. Mullin, T. Nakajima, D. R. Nascimento,
    J. A. Nichols, P. J. Nichols, J. Nieplocha, A. Otero-de-la-Roza, B. Palmer,
    A. Panyala, T. Pirojsirikul, B. Peng, R. Peverati, J. Pittner, L. Pollack,
   R. M. Richard, P. Sadayappan, G. C. Schatz, W. A. Shelton, D. W. Silverstein,
   D. M. A. Smith, T. A. Soares, D. Song, M. Swart, H. L. Taylor, G. S. Thomas,
            V. Tipparaju, D. G. Truhlar, K. Tsemekhman, T. Van Voorhis,
     . Vzquez-Mayagoitia, P. Verma, O. Villa, A. Vishnu, K. D. Vogiatzis,
        D. Wang, J. H. Weare, M. J. Williamson, T. L. Windus, K. Woliski,
        A. T. Wong, Q. Wu, C. Yang, Q. Yu, M. Zacharias, Z. Zhang, Y. Zhao,
                                and R. J. Harrison
                        "NWChem: Past, present, and future
                         J. Chem. Phys. 152, 184102 (2020)
                               doi:10.1063/5.0004997

                                      AUTHORS
                                      -------
     E. Apra, E. J. Bylaska, N. Govind, K. Kowalski, M. Valiev, W. A. de Jong,
      T. P. Straatsma, H. J. J. van Dam, D. Wang, T. L. Windus, N. P. Bauman,
       A. Panyala, J. Hammond, J. Autschbach, K. Bhaskaran-Nair, J. Brabec,
    K. Lopata, S. A. Fischer, S. Krishnamoorthy, M. Jacquelin, W. Ma, M. Klemm,
       O. Villa, Y. Chen, V. Anisimov, F. Aquino, S. Hirata, M. T. Hackler,
           Eric Hermes, L. Jensen, J. E. Moore, J. C. Becca, V. Konjkov,
            D. Mejia-Rodriguez, T. Risthaus, M. Malagoli, A. Marenich,
   A. Otero-de-la-Roza, J. Mullin, P. Nichols, R. Peverati, J. Pittner, Y. Zhao,
        P.-D. Fan, A. Fonari, M. J. Williamson, R. J. Harrison, J. R. Rehr,
      M. Dupuis, D. Silverstein, D. M. A. Smith, J. Nieplocha, V. Tipparaju,
      M. Krishnan, B. E. Van Kuiken, A. Vazquez-Mayagoitia, M. Swart, Q. Wu,
   T. Van Voorhis, A. A. Auer, M. Nooijen, L. D. Crosby, E. Brown, G. Cisneros,
     G. I. Fann, H. Fruchtl, J. Garza, K. Hirao, R. A. Kendall, J. A. Nichols,
       K. Tsemekhman, K. Wolinski, J. Anchell, D. E. Bernholdt, P. Borowski,
       T. Clark, D. Clerc, H. Dachsel, M. J. O. Deegan, K. Dyall, D. Elwood,
      E. Glendening, M. Gutowski, A. C. Hess, J. Jaffe, B. G. Johnson, J. Ju,
        R. Kobayashi, R. Kutteh, Z. Lin, R. Littlefield, X. Long, B. Meng,
      T. Nakajima, S. Niu, L. Pollack, M. Rosing, K. Glaesemann, G. Sandrone,
      M. Stave, H. Taylor, G. Thomas, J. H. van Lenthe, A. T. Wong, Z. Zhang.

 Total times  cpu:     1053.9s     wall:     1023.4s
