 argument  1 = CC(=C)Cl_mol_4_conformer_0.nw



============================== echo of input deck ==============================
start

title "Molecule conformer 0"

memory total 4000 mb

echo
geometry units angstroms
   C      1.1321    -0.0089    -0.1216
   C     -0.2831     0.4050     0.1500
   C     -1.2879    -0.4626    -0.0021
   Cl    -0.6256     2.0490     0.6743
   H      1.8241     0.8402     0.0580
   H      1.4159    -0.8470     0.5496
   H      1.2343    -0.3337    -1.1786
   H     -1.0985    -1.4821    -0.3248
   H     -2.3113    -0.1599     0.1953
end


basis spherical
* library 6-311G
end

driver
  maxiter 500
  xyz final
end

relativistic
  zora on
  zora:cutoff_NMR 1d-8
  zora:cutoff 1d-30
end

dft
  direct
  grid fine
  xc B3LYP
  mult 1
  maxiter 1500
  noprint "final vectors analysis" multipole
end

task dft optimize

task dft freq

property
  shielding 5 5 6 7 8 9
end

cosmo
   solvent cdcl3
end

task dft property
================================================================================


                                         
                                         


             Northwest Computational Chemistry Package (NWChem) 7.0.2
             --------------------------------------------------------


                    Environmental Molecular Sciences Laboratory
                       Pacific Northwest National Laboratory
                                Richland, WA 99352

                              Copyright (c) 1994-2020
                       Pacific Northwest National Laboratory
                            Battelle Memorial Institute

             NWChem is an open-source computational chemistry package
                        distributed under the terms of the
                      Educational Community License (ECL) 2.0
             A copy of the license is included with this distribution
                              in the LICENSE.TXT file

                                  ACKNOWLEDGMENT
                                  --------------

            This software and its documentation were developed at the
            EMSL at Pacific Northwest National Laboratory, a multiprogram
            national laboratory, operated for the U.S. Department of Energy
            by Battelle under Contract Number DE-AC05-76RL01830. Support
            for this work was provided by the Department of Energy Office
            of Biological and Environmental Research, Office of Basic
            Energy Sciences, and the Office of Advanced Scientific Computing.


           Job information
           ---------------

    hostname        = ponder
    program         = nwchem
    date            = Tue Aug  6 12:12:15 2024

    compiled        = Sat_Apr_09_17:12:10_2022
    source          = /build/nwchem-f1f4gx/nwchem-7.0.2/build-openmpi
    nwchem branch   = 7.0.2
    nwchem revision = N/A
    ga revision     = 5.8.1
    use scalapack   = T
    input           = CC(=C)Cl_mol_4_conformer_0.nw
    prefix          = CC(=C)Cl_mol_4_conformer_0.
    data base       = ./CC(=C)Cl_mol_4_conformer_0.db
    status          = startup
    nproc           =       40
    time left       =     -1s



           Memory information
           ------------------

    heap     =  131071998 doubles =   1000.0 Mbytes
    stack    =  131071995 doubles =   1000.0 Mbytes
    global   =  262144000 doubles =   2000.0 Mbytes (distinct from heap & stack)
    total    =  524287993 doubles =   4000.0 Mbytes
    verify   = yes
    hardfail = no 


           Directory information
           ---------------------

  0 permanent = .
  0 scratch   = .




                                NWChem Input Module
                                -------------------


                               Molecule conformer 0
                               --------------------

 Scaling coordinates for geometry "geometry" by  1.889725989
 (inverse scale =  0.529177249)

 CS  symmetry detected

          ------
          auto-z
          ------
  no constraints, skipping    0.0000000000000000     
  no constraints, skipping    0.0000000000000000     


                             Geometry "geometry" -> ""
                             -------------------------

 Output coordinates in angstroms (scale by  1.889725989 to convert to a.u.)

  No.       Tag          Charge          X              Y              Z
 ---- ---------------- ---------- -------------- -------------- --------------
    1 C                    6.0000     1.11612484    -1.28383837     0.00000000
    2 C                    6.0000    -0.10376686    -0.41221055     0.00000000
    3 C                    6.0000    -1.32640595    -0.95132174     0.00000000
    4 Cl                  17.0000     0.07487265     1.33793820     0.00000000
    5 H                    1.0000     2.03537252    -0.66168513     0.00000000
    6 H                    1.0000     1.12134106    -1.92611269     0.90597057
    7 H                    1.0000     1.12134106    -1.92611269    -0.90597057
    8 H                    1.0000    -1.45907313    -2.02918413     0.00000000
    9 H                    1.0000    -2.20752873    -0.31763077     0.00000000

      Atomic Mass 
      ----------- 

      C                 12.000000
      Cl                34.968850
      H                  1.007825


 Effective nuclear repulsion energy (a.u.)     147.8099108634

            Nuclear Dipole moment (a.u.) 
            ----------------------------
        X                 Y               Z
 ---------------- ---------------- ----------------
     0.0000000000    -0.0000000000     0.0000000000

      Symmetry information
      --------------------

 Group name             Cs        
 Group number              2
 Group order               2
 No. of unique centers     8

      Symmetry unique atoms

     1    2    3    4    5    6    8    9



                                Z-matrix (autoz)
                                -------- 

 Units are Angstrom for bonds and degrees for angles

      Type          Name      I     J     K     L     M      Value
      ----------- --------  ----- ----- ----- ----- ----- ----------
    1 Stretch                  1     2                       1.49929
    2 Stretch                  1     5                       1.11000
    3 Stretch                  1     6                       1.11055
    4 Stretch                  1     7                       1.11055
    5 Stretch                  2     3                       1.33622
    6 Stretch                  2     4                       1.75924
    7 Stretch                  3     8                       1.08600
    8 Stretch                  3     9                       1.08533
    9 Bend                     1     2     3               120.65909
   10 Bend                     1     2     4               119.71822
   11 Bend                     2     1     5               110.36330
   12 Bend                     2     1     6               109.87958
   13 Bend                     2     1     7               109.87958
   14 Bend                     2     3     8               120.81151
   15 Bend                     2     3     9               120.48222
   16 Bend                     3     2     4               119.62269
   17 Bend                     5     1     6               108.67918
   18 Bend                     5     1     7               108.67918
   19 Bend                     6     1     7               109.32989
   20 Bend                     8     3     9               118.70627
   21 Torsion                  1     2     3     8           0.00000
   22 Torsion                  1     2     3     9         180.00000
   23 Torsion                  3     2     1     5         180.00000
   24 Torsion                  3     2     1     6         -60.16680
   25 Torsion                  3     2     1     7          60.16680
   26 Torsion                  4     2     1     5           0.00000
   27 Torsion                  4     2     1     6         119.83320
   28 Torsion                  4     2     1     7        -119.83320
   29 Torsion                  4     2     3     8         180.00000
   30 Torsion                  4     2     3     9           0.00000


            XYZ format geometry
            -------------------
     9
 geometry
 C                     1.11612484    -1.28383837     0.00000000
 C                    -0.10376686    -0.41221055     0.00000000
 C                    -1.32640595    -0.95132174     0.00000000
 Cl                    0.07487265     1.33793820     0.00000000
 H                     2.03537252    -0.66168513     0.00000000
 H                     1.12134106    -1.92611269     0.90597057
 H                     1.12134106    -1.92611269    -0.90597057
 H                    -1.45907313    -2.02918413     0.00000000
 H                    -2.20752873    -0.31763077     0.00000000

 ==============================================================================
                                internuclear distances
 ------------------------------------------------------------------------------
       center one      |      center two      | atomic units |  angstroms
 ------------------------------------------------------------------------------
    2 C                |   1 C                |     2.83325  |     1.49929
    3 C                |   2 C                |     2.52509  |     1.33622
    4 Cl               |   2 C                |     3.32449  |     1.75924
    5 H                |   1 C                |     2.09759  |     1.11000
    6 H                |   1 C                |     2.09864  |     1.11055
    7 H                |   1 C                |     2.09864  |     1.11055
    8 H                |   3 C                |     2.05224  |     1.08600
    9 H                |   3 C                |     2.05098  |     1.08533
 ------------------------------------------------------------------------------
                         number of included internuclear distances:          8
 ==============================================================================



 ==============================================================================
                                 internuclear angles
 ------------------------------------------------------------------------------
        center 1       |       center 2       |       center 3       |  degrees
 ------------------------------------------------------------------------------
    2 C                |   1 C                |   5 H                |   110.36
    2 C                |   1 C                |   6 H                |   109.88
    2 C                |   1 C                |   7 H                |   109.88
    5 H                |   1 C                |   6 H                |   108.68
    5 H                |   1 C                |   7 H                |   108.68
    6 H                |   1 C                |   7 H                |   109.33
    1 C                |   2 C                |   3 C                |   120.66
    1 C                |   2 C                |   4 Cl               |   119.72
    3 C                |   2 C                |   4 Cl               |   119.62
    2 C                |   3 C                |   8 H                |   120.81
    2 C                |   3 C                |   9 H                |   120.48
    8 H                |   3 C                |   9 H                |   118.71
 ------------------------------------------------------------------------------
                            number of included internuclear angles:         12
 ==============================================================================





 Summary of "ao basis" -> "" (spherical)
 ------------------------------------------------------------------------------
       Tag                 Description            Shells   Functions and Types
 ---------------- ------------------------------  ------  ---------------------
 *                           6-311G                   on all atoms 




                           NWChem Geometry Optimization
                           ----------------------------




                               Molecule conformer 0


  no constraints, skipping    0.0000000000000000     
 maximum gradient threshold         (gmax) =   0.000450
 rms gradient threshold             (grms) =   0.000300
 maximum cartesian step threshold   (xmax) =   0.001800
 rms cartesian step threshold       (xrms) =   0.001200
 fixed trust radius                (trust) =   0.300000
 maximum step size to saddle      (sadstp) =   0.100000
 energy precision                  (eprec) =   5.0D-06
 maximum number of steps          (nptopt) =  500
 initial hessian option           (inhess) =    0
 line search option               (linopt) =    1
 hessian update option            (modupd) =    1
 saddle point option              (modsad) =    0
 initial eigen-mode to follow     (moddir) =    0
 initial variable to follow       (vardir) =    0
 follow first negative mode     (firstneg) =    T
 apply conjugacy                    (opcg) =    F
 source of zmatrix                         =   autoz   


          -------------------
          Energy Minimization
          -------------------


 Names of Z-matrix variables 
    1              2              3              4              5         
    6              7              8              9             10         
   11             12             13             14             15         
   16             17             18             19             20         
   21             22             23             24             25         
   26             27             28             29             30         

 Variables with the same non-blank name are constrained to be equal


 Using diagonal initial Hessian 
 Scaling for Hessian diagonals: bonds = 1.00  angles = 0.25  torsions = 0.10

          --------
          Step   0
          --------


                         Geometry "geometry" -> "geometry"
                         ---------------------------------

 Output coordinates in angstroms (scale by  1.889725989 to convert to a.u.)

  No.       Tag          Charge          X              Y              Z
 ---- ---------------- ---------- -------------- -------------- --------------
    1 C                    6.0000     1.11612484    -1.28383837     0.00000000
    2 C                    6.0000    -0.10376686    -0.41221055     0.00000000
    3 C                    6.0000    -1.32640595    -0.95132174     0.00000000
    4 Cl                  17.0000     0.07487265     1.33793820     0.00000000
    5 H                    1.0000     2.03537252    -0.66168513     0.00000000
    6 H                    1.0000     1.12134106    -1.92611269     0.90597057
    7 H                    1.0000     1.12134106    -1.92611269    -0.90597057
    8 H                    1.0000    -1.45907313    -2.02918413     0.00000000
    9 H                    1.0000    -2.20752873    -0.31763077     0.00000000

      Atomic Mass 
      ----------- 

      C                 12.000000
      Cl                34.968850
      H                  1.007825


 Effective nuclear repulsion energy (a.u.)     147.8099108634

            Nuclear Dipole moment (a.u.) 
            ----------------------------
        X                 Y               Z
 ---------------- ---------------- ----------------
     0.0000000000    -0.0000000000     0.0000000000

      Symmetry information
      --------------------

 Group name             Cs        
 Group number              2
 Group order               2
 No. of unique centers     8

      Symmetry unique atoms

     1    2    3    4    5    6    8    9


                                 NWChem DFT Module
                                 -----------------


                               Molecule conformer 0


                      Basis "ao basis" -> "ao basis" (spherical)
                      -----
  C (Carbon)
  ----------
            Exponent  Coefficients 
       -------------- ---------------------------------------------------------
  1 S  4.56324000E+03  0.001967
  1 S  6.82024000E+02  0.015231
  1 S  1.54973000E+02  0.076127
  1 S  4.44553000E+01  0.260801
  1 S  1.30290000E+01  0.616462
  1 S  1.82773000E+00  0.221006

  2 S  2.09642000E+01  0.114660
  2 S  4.80331000E+00  0.919999
  2 S  1.45933000E+00 -0.003031

  3 P  2.09642000E+01  0.040249
  3 P  4.80331000E+00  0.237594
  3 P  1.45933000E+00  0.815854

  4 S  4.83456000E-01  1.000000

  5 P  4.83456000E-01  1.000000

  6 S  1.45585000E-01  1.000000

  7 P  1.45585000E-01  1.000000

  Cl (Chlorine)
  -------------
            Exponent  Coefficients 
       -------------- ---------------------------------------------------------
  1 S  1.05819000E+05  0.000738
  1 S  1.58720000E+04  0.005718
  1 S  3.61965000E+03  0.029495
  1 S  1.03080000E+03  0.117286
  1 S  3.39908000E+02  0.362949
  1 S  1.24538000E+02  0.584149

  2 S  1.24538000E+02  0.134177
  2 S  4.95135000E+01  0.624250
  2 S  2.08056000E+01  0.291756

  3 S  6.58346000E+00  1.000000

  4 S  2.56468000E+00  1.000000

  5 S  5.59763000E-01  1.000000

  6 S  1.83273000E-01  1.000000

  7 P  5.89776000E+02  0.002391
  7 P  1.39849000E+02  0.018504
  7 P  4.51413000E+01  0.081377
  7 P  1.68733000E+01  0.221552
  7 P  6.74110000E+00  0.772569

  8 P  6.74110000E+00 -1.572244
  8 P  2.77152000E+00  0.992389

  9 P  1.02387000E+00  1.000000

 10 P  3.81368000E-01  1.000000

 11 P  1.09437000E-01  1.000000

  H (Hydrogen)
  ------------
            Exponent  Coefficients 
       -------------- ---------------------------------------------------------
  1 S  3.38650000E+01  0.025494
  1 S  5.09479000E+00  0.190373
  1 S  1.15879000E+00  0.852161

  2 S  3.25840000E-01  1.000000

  3 S  1.02741000E-01  1.000000



 Summary of "ao basis" -> "ao basis" (spherical)
 ------------------------------------------------------------------------------
       Tag                 Description            Shells   Functions and Types
 ---------------- ------------------------------  ------  ---------------------
 C                           6-311G                  7       13   4s3p
 Cl                          6-311G                 11       21   6s5p
 H                           6-311G                  3        3   3s




 Summary of "ao basis" -> "ao basis" (spherical)
 ------------------------------------------------------------------------------
       Tag                 Description            Shells   Functions and Types
 ---------------- ------------------------------  ------  ---------------------
 C                           6-311G                  7       13   4s3p
 Cl                          6-311G                 11       21   6s5p
 H                           6-311G                  3        3   3s


      Symmetry analysis of basis
      --------------------------

        a'         58
        a"         17

  Caching 1-el integrals 

            General Information
            -------------------
          SCF calculation type: DFT
          Wavefunction type:  closed shell.
          No. of atoms     :     9
          No. of electrons :    40
           Alpha electrons :    20
            Beta electrons :    20
          Charge           :     0
          Spin multiplicity:     1
          Use of symmetry is: on ; symmetry adaption is: on 
          Maximum number of iterations: ***
          This is a Direct SCF calculation.
          AO basis - number of functions:    75
                     number of shells:    47
          Convergence on energy requested:  1.00D-06
          Convergence on density requested:  1.00D-05
          Convergence on gradient requested:  5.00D-04

              XC Information
              --------------
                         B3LYP Method XC Potential
                     Hartree-Fock (Exact) Exchange  0.200          
                        Slater Exchange Functional  0.800 local    
                    Becke 1988 Exchange Functional  0.720 non-local
              Lee-Yang-Parr Correlation Functional  0.810          
                  VWN I RPA Correlation Functional  0.190 local    

             Grid Information
             ----------------
          Grid used for XC integration:  fine      
          Radial quadrature: Mura-Knowles        
          Angular quadrature: Lebedev. 
          Tag              B.-S. Rad. Rad. Pts. Rad. Cut. Ang. Pts.
          ---              ---------- --------- --------- ---------
          C                   0.70       70          11.0       590
          Cl                  1.00      123          11.0       770
          H                   0.35       60          12.0       590
          Grid pruning is: on 
          Number of quadrature shells:   573
          Spatial weights used:  Erf1

          Convergence Information
          -----------------------
          Convergence aids based upon iterative change in 
          total energy or number of iterations. 
          Levelshifting, if invoked, occurs when the 
          HOMO/LUMO gap drops below (HL_TOL):  1.00D-02
          DIIS, if invoked, will attempt to extrapolate 
          using up to (NFOCK): 10 stored Fock matrices.

                    Damping( 0%)  Levelshifting(0.5)       DIIS
                  --------------- ------------------- ---------------
          dE  on:    start            ASAP                start   
          dE off:    2 iters        *** iters           *** iters 


      Screening Tolerance Information
      -------------------------------
          Density screening/tol_rho:  1.00D-10
          AO Gaussian exp screening on grid/accAOfunc:  14
          CD Gaussian exp screening on grid/accCDfunc:  20
          XC Gaussian exp screening on grid/accXCfunc:  20
          Schwarz screening/accCoul:  1.00D-08

          Performing ZORA calculations
          ----------------------------


      Superposition of Atomic Density Guess
      -------------------------------------

 Sum of atomic energies:        -574.98156165

 Read atomic ZORA corrections from ./CC(=C)Cl_mol_4_conformer_0.zora_sf

 dft_zora_read: failed to open./CC(=C)Cl_mol_4_conformer_0.zora_sf
 Forcing recalculation of ZORA corrections
       Generating atomic ZORA corrections
       ----------------------------------

 In dft_scf:: zora:Knucl= F

 Grid_pts file          = ./CC(=C)Cl_mol_4_conformer_0.gridpts.00
 Record size in doubles =  12289        No. of grid_pts per rec  =   3070
 Max. records in memory =      5        Max. recs in file   =     13497


 Wrote atomic ZORA corrections to ./CC(=C)Cl_mol_4_conformer_0.zora_sf


      Superposition of Atomic Density Guess
      -------------------------------------

 Sum of atomic energies:        -574.98156165

      Non-variational initial energy
      ------------------------------

 Total energy =    -577.070895
 1-e energy   =   -1082.058827
 2-e energy   =     357.178021
 HOMO         =      -0.276803
 LUMO         =       0.026831


      Symmetry analysis of molecular orbitals - initial
      -------------------------------------------------

  Numbering of irreducible representations: 

     1 a'          2 a"      

  Orbital symmetries:

     1 a'          2 a'          3 a'          4 a'          5 a'      
     6 a'          7 a'          8 a"          9 a'         10 a'      
    11 a'         12 a'         13 a'         14 a'         15 a"      
    16 a'         17 a"         18 a'         19 a'         20 a"      
    21 a"         22 a'         23 a'         24 a'         25 a'      
    26 a'         27 a"         28 a'         29 a'         30 a"      

   Time after variat. SCF:      6.3
   Time prior to 1st pass:      6.3

           Memory utilization after 1st SCF pass: 
           Heap Space remaining (MW):      131.01           131006390
          Stack Space remaining (MW):      131.06           131060060

   convergence    iter        energy       DeltaE   RMS-Dens  Diis-err    time
 ---------------- ----- ----------------- --------- --------- ---------  ------
 d= 0,ls=0.0,diis     1   -579.6365774947 -7.27D+02  1.48D-02  3.77D+01     9.4
 d= 0,ls=0.0,diis     2   -579.6387512969 -2.17D-03  2.10D-02  8.01D-01    12.2
 d= 0,ls=0.0,diis     3   -579.4782005917  1.61D-01  1.30D-02  1.80D+00    14.8
 d= 0,ls=0.0,diis     4   -579.7334919057 -2.55D-01  1.49D-03  1.33D-02    17.3
 d= 0,ls=0.0,diis     5   -579.7348916900 -1.40D-03  7.51D-04  3.04D-03    19.3
  Resetting Diis
 d= 0,ls=0.0,diis     6   -579.7352988646 -4.07D-04  9.45D-05  6.32D-05    21.8
 d= 0,ls=0.0,diis     7   -579.7353047968 -5.93D-06  5.21D-05  4.17D-06    24.4
 d= 0,ls=0.0,diis     8   -579.7353044906  3.06D-07  2.59D-05  6.78D-06    27.1
 d= 0,ls=0.0,diis     9   -579.7353053471 -8.57D-07  4.06D-06  2.30D-07    29.4
(nogshift,skip_gshiftAOev,done_Fji)=( 1,F,F)


         Total DFT energy =     -579.735305347112
      One electron energy =    -1087.837092427982
           Coulomb energy =      406.774379013355
    Exchange-Corr. energy =      -46.482502795897
 Nuclear repulsion energy =      147.809910863412

       Scaling correction =        0.810184753262

 Numeric. integr. density =       40.000000524766

     Total iterative time =     23.2s



                  Occupations of the irreducible representations
                  ----------------------------------------------

                     irrep           alpha         beta
                     --------     --------     --------
                     a'               16.0         16.0
                     a"                4.0          4.0


 center of mass
 --------------
 x =  -0.01327960 y =   0.20146596 z =   0.00000000

 moments of inertia (a.u.)
 ------------------
         386.518353766376          -0.000000000854           0.000000000000
          -0.000000000854         184.993508205659           0.000000000000
           0.000000000000           0.000000000000         559.695848722006

            General Information
            -------------------
          SCF calculation type: DFT
          Wavefunction type:  closed shell.
          No. of atoms     :     9
          No. of electrons :    40
           Alpha electrons :    20
            Beta electrons :    20
          Charge           :     0
          Spin multiplicity:     1
          Use of symmetry is: on ; symmetry adaption is: on 
          Maximum number of iterations: ***
          This is a Direct SCF calculation.
          AO basis - number of functions:    75
                     number of shells:    47
          Convergence on energy requested:  1.00D-06
          Convergence on density requested:  1.00D-05
          Convergence on gradient requested:  5.00D-04

              XC Information
              --------------
                         B3LYP Method XC Potential
                     Hartree-Fock (Exact) Exchange  0.200          
                        Slater Exchange Functional  0.800 local    
                    Becke 1988 Exchange Functional  0.720 non-local
              Lee-Yang-Parr Correlation Functional  0.810          
                  VWN I RPA Correlation Functional  0.190 local    

             Grid Information
             ----------------
          Grid used for XC integration:  fine      
          Radial quadrature: Mura-Knowles        
          Angular quadrature: Lebedev. 
          Tag              B.-S. Rad. Rad. Pts. Rad. Cut. Ang. Pts.
          ---              ---------- --------- --------- ---------
          C                   0.70       70          11.0       590
          Cl                  1.00      123          11.0       770
          H                   0.35       60          12.0       590
          Grid pruning is: on 
          Number of quadrature shells:   573
          Spatial weights used:  Erf1

          Convergence Information
          -----------------------
          Convergence aids based upon iterative change in 
          total energy or number of iterations. 
          Levelshifting, if invoked, occurs when the 
          HOMO/LUMO gap drops below (HL_TOL):  1.00D-02
          DIIS, if invoked, will attempt to extrapolate 
          using up to (NFOCK): 10 stored Fock matrices.

                    Damping( 0%)  Levelshifting(0.5)       DIIS
                  --------------- ------------------- ---------------
          dE  on:    start            ASAP                start   
          dE off:    2 iters        *** iters           *** iters 


      Screening Tolerance Information
      -------------------------------
          Density screening/tol_rho:  1.00D-10
          AO Gaussian exp screening on grid/accAOfunc:  14
          CD Gaussian exp screening on grid/accCDfunc:  20
          XC Gaussian exp screening on grid/accXCfunc:  20
          Schwarz screening/accCoul:  1.00D-08



                            NWChem DFT Gradient Module
                            --------------------------


                               Molecule conformer 0



  charge          =   0.00
  wavefunction    = closed shell

  Using symmetry


                         DFT ENERGY GRADIENTS

    atom               coordinates                        gradient
                 x          y          z           x          y          z
   1 C       2.109170  -2.426103   0.000000   -0.019091  -0.004648   0.000000
   2 C      -0.196091  -0.778965   0.000000    0.021344   0.044543   0.000000
   3 C      -2.506544  -1.797737   0.000000    0.002217  -0.012918   0.000000
   4 Cl      0.141489   2.528337   0.000000   -0.007624  -0.027438   0.000000
   5 H       3.846296  -1.250404   0.000000    0.008440   0.011107   0.000000
   6 H       2.119027  -3.639825   1.712036   -0.002279  -0.006203   0.010859
   7 H       2.119027  -3.639825  -1.712036   -0.002279  -0.006203  -0.010859
   8 H      -2.757248  -3.834602   0.000000   -0.000454  -0.003306   0.000000
   9 H      -4.171624  -0.600235   0.000000   -0.000274   0.005066   0.000000

                 ----------------------------------------
                 |  Time  |  1-e(secs)   |  2-e(secs)   |
                 ----------------------------------------
                 |  CPU   |       0.00   |       0.10   |
                 ----------------------------------------
                 |  WALL  |       0.00   |       0.10   |
                 ----------------------------------------
  no constraints, skipping    0.0000000000000000     

@ Step       Energy      Delta E   Gmax     Grms     Xrms     Xmax   Walltime
@ ---- ---------------- -------- -------- -------- -------- -------- --------
@    0    -579.73530535  0.0D+00  0.02807  0.00728  0.00000  0.00000     31.7
                                                                    



                                Z-matrix (autoz)
                                -------- 

 Units are Angstrom for bonds and degrees for angles

      Type          Name      I     J     K     L     M      Value     Gradient
      ----------- --------  ----- ----- ----- ----- ----- ---------- ----------
    1 Stretch                  1     2                       1.49929   -0.00892
    2 Stretch                  1     5                       1.11000    0.01321
    3 Stretch                  1     6                       1.11055    0.01244
    4 Stretch                  1     7                       1.11055    0.01244
    5 Stretch                  2     3                       1.33622    0.00314
    6 Stretch                  2     4                       1.75924   -0.02807
    7 Stretch                  3     8                       1.08600    0.00334
    8 Stretch                  3     9                       1.08533    0.00318
    9 Bend                     1     2     3               120.65909   -0.00955
   10 Bend                     1     2     4               119.71822    0.00900
   11 Bend                     2     1     5               110.36330   -0.00295
   12 Bend                     2     1     6               109.87958   -0.00117
   13 Bend                     2     1     7               109.87958   -0.00117
   14 Bend                     2     3     8               120.81151    0.00146
   15 Bend                     2     3     9               120.48222   -0.00288
   16 Bend                     3     2     4               119.62269    0.00055
   17 Bend                     5     1     6               108.67918    0.00198
   18 Bend                     5     1     7               108.67918    0.00198
   19 Bend                     6     1     7               109.32989    0.00144
   20 Bend                     8     3     9               118.70627    0.00141
   21 Torsion                  1     2     3     8           0.00000   -0.00000
   22 Torsion                  1     2     3     9         180.00000   -0.00000
   23 Torsion                  3     2     1     5         180.00000   -0.00000
   24 Torsion                  3     2     1     6         -60.16680   -0.00015
   25 Torsion                  3     2     1     7          60.16680    0.00015
   26 Torsion                  4     2     1     5           0.00000    0.00000
   27 Torsion                  4     2     1     6         119.83320   -0.00015
   28 Torsion                  4     2     1     7        -119.83320    0.00015
   29 Torsion                  4     2     3     8         180.00000    0.00000
   30 Torsion                  4     2     3     9           0.00000   -0.00000

  no constraints, skipping    0.0000000000000000     
  no constraints, skipping    0.0000000000000000     
  no constraints, skipping    0.0000000000000000     
  no constraints, skipping    0.0000000000000000     
  no constraints, skipping    0.0000000000000000     
  no constraints, skipping    0.0000000000000000     
  no constraints, skipping    0.0000000000000000     
  no constraints, skipping    0.0000000000000000     

                                 NWChem DFT Module
                                 -----------------


                               Molecule conformer 0




 Summary of "ao basis" -> "ao basis" (spherical)
 ------------------------------------------------------------------------------
       Tag                 Description            Shells   Functions and Types
 ---------------- ------------------------------  ------  ---------------------
 C                           6-311G                  7       13   4s3p
 Cl                          6-311G                 11       21   6s5p
 H                           6-311G                  3        3   3s


      Symmetry analysis of basis
      --------------------------

        a'         58
        a"         17

  Caching 1-el integrals 

            General Information
            -------------------
          SCF calculation type: DFT
          Wavefunction type:  closed shell.
          No. of atoms     :     9
          No. of electrons :    40
           Alpha electrons :    20
            Beta electrons :    20
          Charge           :     0
          Spin multiplicity:     1
          Use of symmetry is: on ; symmetry adaption is: on 
          Maximum number of iterations: ***
          This is a Direct SCF calculation.
          AO basis - number of functions:    75
                     number of shells:    47
          Convergence on energy requested:  1.00D-06
          Convergence on density requested:  1.00D-05
          Convergence on gradient requested:  5.00D-04

              XC Information
              --------------
                         B3LYP Method XC Potential
                     Hartree-Fock (Exact) Exchange  0.200          
                        Slater Exchange Functional  0.800 local    
                    Becke 1988 Exchange Functional  0.720 non-local
              Lee-Yang-Parr Correlation Functional  0.810          
                  VWN I RPA Correlation Functional  0.190 local    

             Grid Information
             ----------------
          Grid used for XC integration:  fine      
          Radial quadrature: Mura-Knowles        
          Angular quadrature: Lebedev. 
          Tag              B.-S. Rad. Rad. Pts. Rad. Cut. Ang. Pts.
          ---              ---------- --------- --------- ---------
          C                   0.70       70          11.0       590
          Cl                  1.00      123          11.0       770
          H                   0.35       60          12.0       590
          Grid pruning is: on 
          Number of quadrature shells:   573
          Spatial weights used:  Erf1

          Convergence Information
          -----------------------
          Convergence aids based upon iterative change in 
          total energy or number of iterations. 
          Levelshifting, if invoked, occurs when the 
          HOMO/LUMO gap drops below (HL_TOL):  1.00D-02
          DIIS, if invoked, will attempt to extrapolate 
          using up to (NFOCK): 10 stored Fock matrices.

                    Damping( 0%)  Levelshifting(0.5)       DIIS
                  --------------- ------------------- ---------------
          dE  on:    start            ASAP                start   
          dE off:    2 iters        *** iters           *** iters 


      Screening Tolerance Information
      -------------------------------
          Density screening/tol_rho:  1.00D-10
          AO Gaussian exp screening on grid/accAOfunc:  14
          CD Gaussian exp screening on grid/accCDfunc:  20
          XC Gaussian exp screening on grid/accXCfunc:  20
          Schwarz screening/accCoul:  1.00D-08

          Performing ZORA calculations
          ----------------------------


      Superposition of Atomic Density Guess
      -------------------------------------

 Sum of atomic energies:        -574.98156165

 Read atomic ZORA corrections from ./CC(=C)Cl_mol_4_conformer_0.zora_sf

 Forcing recalculation of ZORA corrections
       Generating atomic ZORA corrections
       ----------------------------------

 In dft_scf:: zora:Knucl= F

 Grid_pts file          = ./CC(=C)Cl_mol_4_conformer_0.gridpts.00
 Record size in doubles =  12289        No. of grid_pts per rec  =   3070
 Max. records in memory =      5        Max. recs in file   =     13497


 Wrote atomic ZORA corrections to ./CC(=C)Cl_mol_4_conformer_0.zora_sf


 Loading old vectors from job with title :

Molecule conformer 0


      Symmetry analysis of molecular orbitals - initial
      -------------------------------------------------

  Numbering of irreducible representations: 

     1 a'          2 a"      

  Orbital symmetries:

     1 a'          2 a'          3 a'          4 a'          5 a'      
     6 a'          7 a"          8 a'          9 a'         10 a'      
    11 a'         12 a'         13 a'         14 a'         15 a"      
    16 a'         17 a'         18 a"         19 a'         20 a"      
    21 a"         22 a'         23 a'         24 a'         25 a'      
    26 a'         27 a"         28 a'         29 a'         30 a"      

   Time after variat. SCF:     38.4
   Time prior to 1st pass:     38.4

           Memory utilization after 1st SCF pass: 
           Heap Space remaining (MW):      131.01           131006390
          Stack Space remaining (MW):      131.06           131060060

   convergence    iter        energy       DeltaE   RMS-Dens  Diis-err    time
 ---------------- ----- ----------------- --------- --------- ---------  ------
 d= 0,ls=0.0,diis     1   -579.7378439734 -7.27D+02  2.02D-03  9.17D-03    40.7
 d= 0,ls=0.0,diis     2   -579.7395296600 -1.69D-03  5.75D-04  1.87D-03    42.6
 d= 0,ls=0.0,diis     3   -579.7395500807 -2.04D-05  3.72D-04  1.67D-03    45.5
 d= 0,ls=0.0,diis     4   -579.7397392935 -1.89D-04  1.08D-04  1.38D-04    47.7
 d= 0,ls=0.0,diis     5   -579.7397578179 -1.85D-05  1.61D-05  1.54D-06    49.4
 d= 0,ls=0.0,diis     6   -579.7397580123 -1.94D-07  3.73D-06  2.02D-08    51.6
(nogshift,skip_gshiftAOev,done_Fji)=( 1,F,F)


         Total DFT energy =     -579.739758012289
      One electron energy =    -1085.814730391843
           Coulomb energy =      405.786150474796
    Exchange-Corr. energy =      -46.487819645574
 Nuclear repulsion energy =      146.776641550331

       Scaling correction =        0.810131222001

 Numeric. integr. density =       40.000000525752

     Total iterative time =     13.4s



                  Occupations of the irreducible representations
                  ----------------------------------------------

                     irrep           alpha         beta
                     --------     --------     --------
                     a'               16.0         16.0
                     a"                4.0          4.0


 center of mass
 --------------
 x =   0.00341267 y =   0.18606557 z =   0.00000000

 moments of inertia (a.u.)
 ------------------
         384.805238837150          -6.410794321953           0.000000000000
          -6.410794321953         194.460789313105           0.000000000000
           0.000000000000           0.000000000000         567.988733213421
 Line search: 
     step= 1.00 grad=-7.2D-03 hess= 2.7D-03 energy=   -579.739758 mode=downhill
 new step= 1.32                   predicted energy=   -579.740036
  no constraints, skipping    0.0000000000000000     
  no constraints, skipping    0.0000000000000000     
  no constraints, skipping    0.0000000000000000     
  no constraints, skipping    0.0000000000000000     
  no constraints, skipping    0.0000000000000000     
  no constraints, skipping    0.0000000000000000     
  no constraints, skipping    0.0000000000000000     
  no constraints, skipping    0.0000000000000000     

          --------
          Step   1
          --------


                         Geometry "geometry" -> "geometry"
                         ---------------------------------

 Output coordinates in angstroms (scale by  1.889725989 to convert to a.u.)

  No.       Tag          Charge          X              Y              Z
 ---- ---------------- ---------- -------------- -------------- --------------
    1 C                    6.0000     1.14204973    -1.27908624     0.00000000
    2 C                    6.0000    -0.13730103    -0.46710750     0.00000000
    3 C                    6.0000    -1.37983323    -0.94738404     0.00000000
    4 Cl                  17.0000     0.12136870     1.32796399     0.00000000
    5 H                    1.0000     2.02799743    -0.65743955     0.00000000
    6 H                    1.0000     1.19508549    -1.91281940     0.87840981
    7 H                    1.0000     1.19508549    -1.91281940    -0.87840981
    8 H                    1.0000    -1.54374895    -2.01418304     0.00000000
    9 H                    1.0000    -2.24842616    -0.30728268     0.00000000

      Atomic Mass 
      ----------- 

      C                 12.000000
      Cl                34.968850
      H                  1.007825


 Effective nuclear repulsion energy (a.u.)     146.4752897941

            Nuclear Dipole moment (a.u.) 
            ----------------------------
        X                 Y               Z
 ---------------- ---------------- ----------------
     0.8291248505    -0.7381704590     0.0000000000

      Symmetry information
      --------------------

 Group name             Cs        
 Group number              2
 Group order               2
 No. of unique centers     8

      Symmetry unique atoms

     1    2    3    4    5    6    8    9


                                 NWChem DFT Module
                                 -----------------


                               Molecule conformer 0




 Summary of "ao basis" -> "ao basis" (spherical)
 ------------------------------------------------------------------------------
       Tag                 Description            Shells   Functions and Types
 ---------------- ------------------------------  ------  ---------------------
 C                           6-311G                  7       13   4s3p
 Cl                          6-311G                 11       21   6s5p
 H                           6-311G                  3        3   3s


      Symmetry analysis of basis
      --------------------------

        a'         58
        a"         17

  Caching 1-el integrals 

            General Information
            -------------------
          SCF calculation type: DFT
          Wavefunction type:  closed shell.
          No. of atoms     :     9
          No. of electrons :    40
           Alpha electrons :    20
            Beta electrons :    20
          Charge           :     0
          Spin multiplicity:     1
          Use of symmetry is: on ; symmetry adaption is: on 
          Maximum number of iterations: ***
          This is a Direct SCF calculation.
          AO basis - number of functions:    75
                     number of shells:    47
          Convergence on energy requested:  1.00D-06
          Convergence on density requested:  1.00D-05
          Convergence on gradient requested:  5.00D-04

              XC Information
              --------------
                         B3LYP Method XC Potential
                     Hartree-Fock (Exact) Exchange  0.200          
                        Slater Exchange Functional  0.800 local    
                    Becke 1988 Exchange Functional  0.720 non-local
              Lee-Yang-Parr Correlation Functional  0.810          
                  VWN I RPA Correlation Functional  0.190 local    

             Grid Information
             ----------------
          Grid used for XC integration:  fine      
          Radial quadrature: Mura-Knowles        
          Angular quadrature: Lebedev. 
          Tag              B.-S. Rad. Rad. Pts. Rad. Cut. Ang. Pts.
          ---              ---------- --------- --------- ---------
          C                   0.70       70          11.0       590
          Cl                  1.00      123          11.0       770
          H                   0.35       60          12.0       590
          Grid pruning is: on 
          Number of quadrature shells:   573
          Spatial weights used:  Erf1

          Convergence Information
          -----------------------
          Convergence aids based upon iterative change in 
          total energy or number of iterations. 
          Levelshifting, if invoked, occurs when the 
          HOMO/LUMO gap drops below (HL_TOL):  1.00D-02
          DIIS, if invoked, will attempt to extrapolate 
          using up to (NFOCK): 10 stored Fock matrices.

                    Damping( 0%)  Levelshifting(0.5)       DIIS
                  --------------- ------------------- ---------------
          dE  on:    start            ASAP                start   
          dE off:    2 iters        *** iters           *** iters 


      Screening Tolerance Information
      -------------------------------
          Density screening/tol_rho:  1.00D-10
          AO Gaussian exp screening on grid/accAOfunc:  14
          CD Gaussian exp screening on grid/accCDfunc:  20
          XC Gaussian exp screening on grid/accXCfunc:  20
          Schwarz screening/accCoul:  1.00D-08

          Performing ZORA calculations
          ----------------------------


      Superposition of Atomic Density Guess
      -------------------------------------

 Sum of atomic energies:        -574.98156165

 Read atomic ZORA corrections from ./CC(=C)Cl_mol_4_conformer_0.zora_sf

 Forcing recalculation of ZORA corrections
       Generating atomic ZORA corrections
       ----------------------------------

 In dft_scf:: zora:Knucl= F

 Grid_pts file          = ./CC(=C)Cl_mol_4_conformer_0.gridpts.00
 Record size in doubles =  12289        No. of grid_pts per rec  =   3070
 Max. records in memory =      5        Max. recs in file   =     13497


 Wrote atomic ZORA corrections to ./CC(=C)Cl_mol_4_conformer_0.zora_sf


 Loading old vectors from job with title :

Molecule conformer 0


      Symmetry analysis of molecular orbitals - initial
      -------------------------------------------------

  Numbering of irreducible representations: 

     1 a'          2 a"      

  Orbital symmetries:

     1 a'          2 a'          3 a'          4 a'          5 a'      
     6 a'          7 a"          8 a'          9 a'         10 a'      
    11 a'         12 a'         13 a'         14 a'         15 a"      
    16 a'         17 a'         18 a"         19 a'         20 a"      
    21 a"         22 a'         23 a'         24 a'         25 a'      
    26 a"         27 a'         28 a'         29 a'         30 a"      

   Time after variat. SCF:     58.9
   Time prior to 1st pass:     58.9

           Memory utilization after 1st SCF pass: 
           Heap Space remaining (MW):      131.01           131006390
          Stack Space remaining (MW):      131.06           131060060

   convergence    iter        energy       DeltaE   RMS-Dens  Diis-err    time
 ---------------- ----- ----------------- --------- --------- ---------  ------
 d= 0,ls=0.0,diis     1   -579.7398798986 -7.26D+02  6.53D-04  9.10D-04    61.5
 d= 0,ls=0.0,diis     2   -579.7400490123 -1.69D-04  1.78D-04  1.78D-04    64.0
 d= 0,ls=0.0,diis     3   -579.7400511271 -2.11D-06  1.14D-04  1.58D-04    66.1
 d= 0,ls=0.0,diis     4   -579.7400690234 -1.79D-05  3.38D-05  1.34D-05    68.4
 d= 0,ls=0.0,diis     5   -579.7400708057 -1.78D-06  4.95D-06  1.57D-07    70.5
 d= 0,ls=0.0,diis     6   -579.7400708254 -1.97D-08  1.20D-06  1.97D-09    72.6
(nogshift,skip_gshiftAOev,done_Fji)=( 1,F,F)


         Total DFT energy =     -579.740070825362
      One electron energy =    -1085.223045276966
           Coulomb energy =      405.497761089258
    Exchange-Corr. energy =      -46.490076431729
 Nuclear repulsion energy =      146.475289794075

       Scaling correction =        0.810113746660

 Numeric. integr. density =       40.000001346386

     Total iterative time =     13.8s



                  Occupations of the irreducible representations
                  ----------------------------------------------

                     irrep           alpha         beta
                     --------     --------     --------
                     a'               16.0         16.0
                     a"                4.0          4.0


 center of mass
 --------------
 x =   0.00929849 y =   0.18041634 z =   0.00000000

 moments of inertia (a.u.)
 ------------------
         384.052081176649          -8.591783098506           0.000000000000
          -8.591783098506         197.529593940421           0.000000000000
           0.000000000000           0.000000000000         570.473642508131

            General Information
            -------------------
          SCF calculation type: DFT
          Wavefunction type:  closed shell.
          No. of atoms     :     9
          No. of electrons :    40
           Alpha electrons :    20
            Beta electrons :    20
          Charge           :     0
          Spin multiplicity:     1
          Use of symmetry is: on ; symmetry adaption is: on 
          Maximum number of iterations: ***
          This is a Direct SCF calculation.
          AO basis - number of functions:    75
                     number of shells:    47
          Convergence on energy requested:  1.00D-06
          Convergence on density requested:  1.00D-05
          Convergence on gradient requested:  5.00D-04

              XC Information
              --------------
                         B3LYP Method XC Potential
                     Hartree-Fock (Exact) Exchange  0.200          
                        Slater Exchange Functional  0.800 local    
                    Becke 1988 Exchange Functional  0.720 non-local
              Lee-Yang-Parr Correlation Functional  0.810          
                  VWN I RPA Correlation Functional  0.190 local    

             Grid Information
             ----------------
          Grid used for XC integration:  fine      
          Radial quadrature: Mura-Knowles        
          Angular quadrature: Lebedev. 
          Tag              B.-S. Rad. Rad. Pts. Rad. Cut. Ang. Pts.
          ---              ---------- --------- --------- ---------
          C                   0.70       70          11.0       590
          Cl                  1.00      123          11.0       770
          H                   0.35       60          12.0       590
          Grid pruning is: on 
          Number of quadrature shells:   573
          Spatial weights used:  Erf1

          Convergence Information
          -----------------------
          Convergence aids based upon iterative change in 
          total energy or number of iterations. 
          Levelshifting, if invoked, occurs when the 
          HOMO/LUMO gap drops below (HL_TOL):  1.00D-02
          DIIS, if invoked, will attempt to extrapolate 
          using up to (NFOCK): 10 stored Fock matrices.

                    Damping( 0%)  Levelshifting(0.5)       DIIS
                  --------------- ------------------- ---------------
          dE  on:    start            ASAP                start   
          dE off:    2 iters        *** iters           *** iters 


      Screening Tolerance Information
      -------------------------------
          Density screening/tol_rho:  1.00D-10
          AO Gaussian exp screening on grid/accAOfunc:  14
          CD Gaussian exp screening on grid/accCDfunc:  20
          XC Gaussian exp screening on grid/accXCfunc:  20
          Schwarz screening/accCoul:  1.00D-08



                            NWChem DFT Gradient Module
                            --------------------------


                               Molecule conformer 0



  charge          =   0.00
  wavefunction    = closed shell

  Using symmetry


                         DFT ENERGY GRADIENTS

    atom               coordinates                        gradient
                 x          y          z           x          y          z
   1 C       2.158161  -2.417123   0.000000    0.004288  -0.004384   0.000000
   2 C      -0.259461  -0.882705   0.000000    0.001061   0.018070   0.000000
   3 C      -2.607507  -1.790296   0.000000   -0.005896  -0.006169   0.000000
   4 Cl      0.229354   2.509488   0.000000   -0.000706  -0.012016   0.000000
   5 H       3.832359  -1.242381   0.000000   -0.000984  -0.003795   0.000000
   6 H       2.258384  -3.614705   1.659954    0.000973   0.002989  -0.003722
   7 H       2.258384  -3.614705  -1.659954    0.000973   0.002989   0.003722
   8 H      -2.917263  -3.806254   0.000000    0.000059   0.002267   0.000000
   9 H      -4.248909  -0.580680   0.000000    0.000231   0.000049   0.000000

                 ----------------------------------------
                 |  Time  |  1-e(secs)   |  2-e(secs)   |
                 ----------------------------------------
                 |  CPU   |       0.00   |       0.10   |
                 ----------------------------------------
                 |  WALL  |       0.00   |       0.10   |
                 ----------------------------------------
  no constraints, skipping    0.0000000000000000     

  Step       Energy      Delta E   Gmax     Grms     Xrms     Xmax   Walltime
  ---- ---------------- -------- -------- -------- -------- -------- --------
@    1    -579.74007083 -4.8D-03  0.01199  0.00308  0.06461  0.15840     74.9
                                                                    



                                Z-matrix (autoz)
                                -------- 

 Units are Angstrom for bonds and degrees for angles

      Type          Name      I     J     K     L     M      Value     Gradient
      ----------- --------  ----- ----- ----- ----- ----- ---------- ----------
    1 Stretch                  1     2                       1.51527    0.00561
    2 Stretch                  1     5                       1.08229   -0.00298
    3 Stretch                  1     6                       1.08445   -0.00471
    4 Stretch                  1     7                       1.08445   -0.00471
    5 Stretch                  2     3                       1.33212    0.00662
    6 Stretch                  2     4                       1.81361   -0.01199
    7 Stretch                  3     8                       1.07932   -0.00225
    8 Stretch                  3     9                       1.07897   -0.00016
    9 Bend                     1     2     3               126.46447   -0.00045
   10 Bend                     1     2     4               114.20262   -0.00070
   11 Bend                     2     1     5               112.54116    0.00161
   12 Bend                     2     1     6               110.75912    0.00032
   13 Bend                     2     1     7               110.75912    0.00032
   14 Bend                     2     3     8               119.86833    0.00027
   15 Bend                     2     3     9               122.47896   -0.00023
   16 Bend                     3     2     4               119.33291    0.00115
   17 Bend                     5     1     6               107.19499   -0.00108
   18 Bend                     5     1     7               107.19499   -0.00108
   19 Bend                     6     1     7               108.19265   -0.00023
   20 Bend                     8     3     9               117.65272   -0.00004
   21 Torsion                  1     2     3     8           0.00000    0.00000
   22 Torsion                  1     2     3     9         180.00000    0.00000
   23 Torsion                  3     2     1     5         180.00000   -0.00000
   24 Torsion                  3     2     1     6         -60.02477   -0.00007
   25 Torsion                  3     2     1     7          60.02477    0.00007
   26 Torsion                  4     2     1     5           0.00000    0.00000
   27 Torsion                  4     2     1     6         119.97523   -0.00007
   28 Torsion                  4     2     1     7        -119.97523    0.00007
   29 Torsion                  4     2     3     8         180.00000   -0.00000
   30 Torsion                  4     2     3     9           0.00000    0.00000

  no constraints, skipping    0.0000000000000000     
  no constraints, skipping    0.0000000000000000     
  no constraints, skipping    0.0000000000000000     
  no constraints, skipping    0.0000000000000000     
  no constraints, skipping    0.0000000000000000     
  no constraints, skipping    0.0000000000000000     
  no constraints, skipping    0.0000000000000000     
  no constraints, skipping    0.0000000000000000     

                                 NWChem DFT Module
                                 -----------------


                               Molecule conformer 0




 Summary of "ao basis" -> "ao basis" (spherical)
 ------------------------------------------------------------------------------
       Tag                 Description            Shells   Functions and Types
 ---------------- ------------------------------  ------  ---------------------
 C                           6-311G                  7       13   4s3p
 Cl                          6-311G                 11       21   6s5p
 H                           6-311G                  3        3   3s


      Symmetry analysis of basis
      --------------------------

        a'         58
        a"         17

  Caching 1-el integrals 

            General Information
            -------------------
          SCF calculation type: DFT
          Wavefunction type:  closed shell.
          No. of atoms     :     9
          No. of electrons :    40
           Alpha electrons :    20
            Beta electrons :    20
          Charge           :     0
          Spin multiplicity:     1
          Use of symmetry is: on ; symmetry adaption is: on 
          Maximum number of iterations: ***
          This is a Direct SCF calculation.
          AO basis - number of functions:    75
                     number of shells:    47
          Convergence on energy requested:  1.00D-06
          Convergence on density requested:  1.00D-05
          Convergence on gradient requested:  5.00D-04

              XC Information
              --------------
                         B3LYP Method XC Potential
                     Hartree-Fock (Exact) Exchange  0.200          
                        Slater Exchange Functional  0.800 local    
                    Becke 1988 Exchange Functional  0.720 non-local
              Lee-Yang-Parr Correlation Functional  0.810          
                  VWN I RPA Correlation Functional  0.190 local    

             Grid Information
             ----------------
          Grid used for XC integration:  fine      
          Radial quadrature: Mura-Knowles        
          Angular quadrature: Lebedev. 
          Tag              B.-S. Rad. Rad. Pts. Rad. Cut. Ang. Pts.
          ---              ---------- --------- --------- ---------
          C                   0.70       70          11.0       590
          Cl                  1.00      123          11.0       770
          H                   0.35       60          12.0       590
          Grid pruning is: on 
          Number of quadrature shells:   573
          Spatial weights used:  Erf1

          Convergence Information
          -----------------------
          Convergence aids based upon iterative change in 
          total energy or number of iterations. 
          Levelshifting, if invoked, occurs when the 
          HOMO/LUMO gap drops below (HL_TOL):  1.00D-02
          DIIS, if invoked, will attempt to extrapolate 
          using up to (NFOCK): 10 stored Fock matrices.

                    Damping( 0%)  Levelshifting(0.5)       DIIS
                  --------------- ------------------- ---------------
          dE  on:    start            ASAP                start   
          dE off:    2 iters        *** iters           *** iters 


      Screening Tolerance Information
      -------------------------------
          Density screening/tol_rho:  1.00D-10
          AO Gaussian exp screening on grid/accAOfunc:  14
          CD Gaussian exp screening on grid/accCDfunc:  20
          XC Gaussian exp screening on grid/accXCfunc:  20
          Schwarz screening/accCoul:  1.00D-08

          Performing ZORA calculations
          ----------------------------


      Superposition of Atomic Density Guess
      -------------------------------------

 Sum of atomic energies:        -574.98156165

 Read atomic ZORA corrections from ./CC(=C)Cl_mol_4_conformer_0.zora_sf

 Forcing recalculation of ZORA corrections
       Generating atomic ZORA corrections
       ----------------------------------

 In dft_scf:: zora:Knucl= F

 Grid_pts file          = ./CC(=C)Cl_mol_4_conformer_0.gridpts.00
 Record size in doubles =  12289        No. of grid_pts per rec  =   3070
 Max. records in memory =      5        Max. recs in file   =     13497


 Wrote atomic ZORA corrections to ./CC(=C)Cl_mol_4_conformer_0.zora_sf


 Loading old vectors from job with title :

Molecule conformer 0


      Symmetry analysis of molecular orbitals - initial
      -------------------------------------------------

  Numbering of irreducible representations: 

     1 a'          2 a"      

  Orbital symmetries:

     1 a'          2 a'          3 a'          4 a'          5 a'      
     6 a'          7 a"          8 a'          9 a'         10 a'      
    11 a'         12 a'         13 a'         14 a'         15 a"      
    16 a'         17 a'         18 a"         19 a'         20 a"      
    21 a"         22 a'         23 a'         24 a'         25 a'      
    26 a"         27 a'         28 a'         29 a'         30 a"      

   Time after variat. SCF:     82.0
   Time prior to 1st pass:     82.0

           Memory utilization after 1st SCF pass: 
           Heap Space remaining (MW):      131.01           131006390
          Stack Space remaining (MW):      131.06           131060060

   convergence    iter        energy       DeltaE   RMS-Dens  Diis-err    time
 ---------------- ----- ----------------- --------- --------- ---------  ------
 d= 0,ls=0.0,diis     1   -579.7404729073 -7.26D+02  6.18D-04  1.09D-03    84.4
 d= 0,ls=0.0,diis     2   -579.7406764864 -2.04D-04  1.88D-04  6.16D-05    87.2
 d= 0,ls=0.0,diis     3   -579.7406662945  1.02D-05  1.06D-04  1.44D-04    89.7
 d= 0,ls=0.0,diis     4   -579.7406845762 -1.83D-05  1.97D-05  3.08D-06    92.0
 d= 0,ls=0.0,diis     5   -579.7406849474 -3.71D-07  4.15D-06  3.64D-07    94.5
(nogshift,skip_gshiftAOev,done_Fji)=( 1,F,F)


         Total DFT energy =     -579.740684947402
      One electron energy =    -1084.398871151439
           Coulomb energy =      405.091081934893
    Exchange-Corr. energy =      -46.484144919187
 Nuclear repulsion energy =      146.051249188331

       Scaling correction =        0.810095132875

 Numeric. integr. density =       40.000001365403

     Total iterative time =     12.6s



                  Occupations of the irreducible representations
                  ----------------------------------------------

                     irrep           alpha         beta
                     --------     --------     --------
                     a'               16.0         16.0
                     a"                4.0          4.0


 center of mass
 --------------
 x =   0.01196572 y =   0.18560014 z =   0.00000000

 moments of inertia (a.u.)
 ------------------
         388.461378250648          -8.898145007014           0.000000000000
          -8.898145007014         197.012197080952           0.000000000000
           0.000000000000           0.000000000000         574.262745254006
 Line search: 
     step= 1.00 grad=-9.1D-04 hess= 2.9D-04 energy=   -579.740685 mode=downhill
 new step= 1.55                   predicted energy=   -579.740774
  no constraints, skipping    0.0000000000000000     
  no constraints, skipping    0.0000000000000000     
  no constraints, skipping    0.0000000000000000     
  no constraints, skipping    0.0000000000000000     
  no constraints, skipping    0.0000000000000000     
  no constraints, skipping    0.0000000000000000     
  no constraints, skipping    0.0000000000000000     
  no constraints, skipping    0.0000000000000000     

          --------
          Step   2
          --------


                         Geometry "geometry" -> "geometry"
                         ---------------------------------

 Output coordinates in angstroms (scale by  1.889725989 to convert to a.u.)

  No.       Tag          Charge          X              Y              Z
 ---- ---------------- ---------- -------------- -------------- --------------
    1 C                    6.0000     1.14128192    -1.28346034     0.00000000
    2 C                    6.0000    -0.13627591    -0.48664974     0.00000000
    3 C                    6.0000    -1.37483235    -0.94629512     0.00000000
    4 Cl                  17.0000     0.12458651     1.34491270     0.00000000
    5 H                    1.0000     2.01295326    -0.63657598     0.00000000
    6 H                    1.0000     1.19568980    -1.92172879     0.88470303
    7 H                    1.0000     1.19568980    -1.92172879    -0.88470303
    8 H                    1.0000    -1.54696309    -2.01622524     0.00000000
    9 H                    1.0000    -2.23985247    -0.30240657     0.00000000

      Atomic Mass 
      ----------- 

      C                 12.000000
      Cl                34.968850
      H                  1.007825


 Effective nuclear repulsion energy (a.u.)     145.8230330882

            Nuclear Dipole moment (a.u.) 
            ----------------------------
        X                 Y               Z
 ---------------- ---------------- ----------------
     0.9760999361    -0.4414036315     0.0000000000

      Symmetry information
      --------------------

 Group name             Cs        
 Group number              2
 Group order               2
 No. of unique centers     8

      Symmetry unique atoms

     1    2    3    4    5    6    8    9


                                 NWChem DFT Module
                                 -----------------


                               Molecule conformer 0




 Summary of "ao basis" -> "ao basis" (spherical)
 ------------------------------------------------------------------------------
       Tag                 Description            Shells   Functions and Types
 ---------------- ------------------------------  ------  ---------------------
 C                           6-311G                  7       13   4s3p
 Cl                          6-311G                 11       21   6s5p
 H                           6-311G                  3        3   3s


      Symmetry analysis of basis
      --------------------------

        a'         58
        a"         17

  Caching 1-el integrals 

            General Information
            -------------------
          SCF calculation type: DFT
          Wavefunction type:  closed shell.
          No. of atoms     :     9
          No. of electrons :    40
           Alpha electrons :    20
            Beta electrons :    20
          Charge           :     0
          Spin multiplicity:     1
          Use of symmetry is: on ; symmetry adaption is: on 
          Maximum number of iterations: ***
          This is a Direct SCF calculation.
          AO basis - number of functions:    75
                     number of shells:    47
          Convergence on energy requested:  1.00D-06
          Convergence on density requested:  1.00D-05
          Convergence on gradient requested:  5.00D-04

              XC Information
              --------------
                         B3LYP Method XC Potential
                     Hartree-Fock (Exact) Exchange  0.200          
                        Slater Exchange Functional  0.800 local    
                    Becke 1988 Exchange Functional  0.720 non-local
              Lee-Yang-Parr Correlation Functional  0.810          
                  VWN I RPA Correlation Functional  0.190 local    

             Grid Information
             ----------------
          Grid used for XC integration:  fine      
          Radial quadrature: Mura-Knowles        
          Angular quadrature: Lebedev. 
          Tag              B.-S. Rad. Rad. Pts. Rad. Cut. Ang. Pts.
          ---              ---------- --------- --------- ---------
          C                   0.70       70          11.0       590
          Cl                  1.00      123          11.0       770
          H                   0.35       60          12.0       590
          Grid pruning is: on 
          Number of quadrature shells:   573
          Spatial weights used:  Erf1

          Convergence Information
          -----------------------
          Convergence aids based upon iterative change in 
          total energy or number of iterations. 
          Levelshifting, if invoked, occurs when the 
          HOMO/LUMO gap drops below (HL_TOL):  1.00D-02
          DIIS, if invoked, will attempt to extrapolate 
          using up to (NFOCK): 10 stored Fock matrices.

                    Damping( 0%)  Levelshifting(0.5)       DIIS
                  --------------- ------------------- ---------------
          dE  on:    start            ASAP                start   
          dE off:    2 iters        *** iters           *** iters 


      Screening Tolerance Information
      -------------------------------
          Density screening/tol_rho:  1.00D-10
          AO Gaussian exp screening on grid/accAOfunc:  14
          CD Gaussian exp screening on grid/accCDfunc:  20
          XC Gaussian exp screening on grid/accXCfunc:  20
          Schwarz screening/accCoul:  1.00D-08

          Performing ZORA calculations
          ----------------------------


      Superposition of Atomic Density Guess
      -------------------------------------

 Sum of atomic energies:        -574.98156165

 Read atomic ZORA corrections from ./CC(=C)Cl_mol_4_conformer_0.zora_sf

 Forcing recalculation of ZORA corrections
       Generating atomic ZORA corrections
       ----------------------------------

 In dft_scf:: zora:Knucl= F

 Grid_pts file          = ./CC(=C)Cl_mol_4_conformer_0.gridpts.00
 Record size in doubles =  12289        No. of grid_pts per rec  =   3070
 Max. records in memory =      5        Max. recs in file   =     13497


 Wrote atomic ZORA corrections to ./CC(=C)Cl_mol_4_conformer_0.zora_sf


 Loading old vectors from job with title :

Molecule conformer 0


      Symmetry analysis of molecular orbitals - initial
      -------------------------------------------------

  Numbering of irreducible representations: 

     1 a'          2 a"      

  Orbital symmetries:

     1 a'          2 a'          3 a'          4 a'          5 a'      
     6 a'          7 a"          8 a'          9 a'         10 a'      
    11 a'         12 a'         13 a'         14 a'         15 a"      
    16 a'         17 a'         18 a"         19 a'         20 a"      
    21 a"         22 a'         23 a'         24 a'         25 a'      
    26 a"         27 a'         28 a'         29 a'         30 a"      

   Time after variat. SCF:    101.8
   Time prior to 1st pass:    101.8

           Memory utilization after 1st SCF pass: 
           Heap Space remaining (MW):      131.01           131006390
          Stack Space remaining (MW):      131.06           131060060

   convergence    iter        energy       DeltaE   RMS-Dens  Diis-err    time
 ---------------- ----- ----------------- --------- --------- ---------  ------
 d= 0,ls=0.0,diis     1   -579.7407219272 -7.26D+02  3.36D-04  3.22D-04   104.3
 d= 0,ls=0.0,diis     2   -579.7407825459 -6.06D-05  9.89D-05  1.71D-05   106.5
 d= 0,ls=0.0,diis     3   -579.7407799997  2.55D-06  5.49D-05  3.79D-05   108.9
 d= 0,ls=0.0,diis     4   -579.7407847845 -4.78D-06  1.12D-05  1.01D-06   111.4
 d= 0,ls=0.0,diis     5   -579.7407849061 -1.22D-07  2.42D-06  1.10D-07   113.7
(nogshift,skip_gshiftAOev,done_Fji)=( 1,F,F)


         Total DFT energy =     -579.740784906138
      One electron energy =    -1083.954555416803
           Coulomb energy =      404.871819800140
    Exchange-Corr. energy =      -46.481082377669
 Nuclear repulsion energy =      145.823033088194

       Scaling correction =        0.810084800646

 Numeric. integr. density =       40.000001266763

     Total iterative time =     12.0s



                  Occupations of the irreducible representations
                  ----------------------------------------------

                     irrep           alpha         beta
                     --------     --------     --------
                     a'               16.0         16.0
                     a"                4.0          4.0


 center of mass
 --------------
 x =   0.01345245 y =   0.18848842 z =   0.00000000

 moments of inertia (a.u.)
 ------------------
         390.921064919648          -9.066073310157           0.000000000000
          -9.066073310157         196.712499210695           0.000000000000
           0.000000000000           0.000000000000         576.365798182207

            General Information
            -------------------
          SCF calculation type: DFT
          Wavefunction type:  closed shell.
          No. of atoms     :     9
          No. of electrons :    40
           Alpha electrons :    20
            Beta electrons :    20
          Charge           :     0
          Spin multiplicity:     1
          Use of symmetry is: on ; symmetry adaption is: on 
          Maximum number of iterations: ***
          This is a Direct SCF calculation.
          AO basis - number of functions:    75
                     number of shells:    47
          Convergence on energy requested:  1.00D-06
          Convergence on density requested:  1.00D-05
          Convergence on gradient requested:  5.00D-04

              XC Information
              --------------
                         B3LYP Method XC Potential
                     Hartree-Fock (Exact) Exchange  0.200          
                        Slater Exchange Functional  0.800 local    
                    Becke 1988 Exchange Functional  0.720 non-local
              Lee-Yang-Parr Correlation Functional  0.810          
                  VWN I RPA Correlation Functional  0.190 local    

             Grid Information
             ----------------
          Grid used for XC integration:  fine      
          Radial quadrature: Mura-Knowles        
          Angular quadrature: Lebedev. 
          Tag              B.-S. Rad. Rad. Pts. Rad. Cut. Ang. Pts.
          ---              ---------- --------- --------- ---------
          C                   0.70       70          11.0       590
          Cl                  1.00      123          11.0       770
          H                   0.35       60          12.0       590
          Grid pruning is: on 
          Number of quadrature shells:   573
          Spatial weights used:  Erf1

          Convergence Information
          -----------------------
          Convergence aids based upon iterative change in 
          total energy or number of iterations. 
          Levelshifting, if invoked, occurs when the 
          HOMO/LUMO gap drops below (HL_TOL):  1.00D-02
          DIIS, if invoked, will attempt to extrapolate 
          using up to (NFOCK): 10 stored Fock matrices.

                    Damping( 0%)  Levelshifting(0.5)       DIIS
                  --------------- ------------------- ---------------
          dE  on:    start            ASAP                start   
          dE off:    2 iters        *** iters           *** iters 


      Screening Tolerance Information
      -------------------------------
          Density screening/tol_rho:  1.00D-10
          AO Gaussian exp screening on grid/accAOfunc:  14
          CD Gaussian exp screening on grid/accCDfunc:  20
          XC Gaussian exp screening on grid/accXCfunc:  20
          Schwarz screening/accCoul:  1.00D-08



                            NWChem DFT Gradient Module
                            --------------------------


                               Molecule conformer 0



  charge          =   0.00
  wavefunction    = closed shell

  Using symmetry


                         DFT ENERGY GRADIENTS

    atom               coordinates                        gradient
                 x          y          z           x          y          z
   1 C       2.156710  -2.425388   0.000000    0.000924  -0.000357   0.000000
   2 C      -0.257524  -0.919635   0.000000   -0.005509   0.001799   0.000000
   3 C      -2.598056  -1.788238   0.000000    0.004364   0.001188   0.000000
   4 Cl      0.235434   2.541516   0.000000    0.000343  -0.001915   0.000000
   5 H       3.803930  -1.202954   0.000000   -0.000550   0.000042   0.000000
   6 H       2.259526  -3.631541   1.671846    0.000011  -0.000187   0.000380
   7 H       2.259526  -3.631541  -1.671846    0.000011  -0.000187  -0.000380
   8 H      -2.923336  -3.810113   0.000000    0.000126  -0.000244   0.000000
   9 H      -4.232707  -0.571466   0.000000    0.000280  -0.000138   0.000000

                 ----------------------------------------
                 |  Time  |  1-e(secs)   |  2-e(secs)   |
                 ----------------------------------------
                 |  CPU   |       0.00   |       0.10   |
                 ----------------------------------------
                 |  WALL  |       0.00   |       0.10   |
                 ----------------------------------------
  no constraints, skipping    0.0000000000000000     

  Step       Energy      Delta E   Gmax     Grms     Xrms     Xmax   Walltime
  ---- ---------------- -------- -------- -------- -------- -------- --------
@    2    -579.74078491 -7.1D-04  0.00475  0.00097  0.01518  0.03937    116.1
[...]
dia1(k,t,iat1,ispin)=(  2,  3,  8,  1)=(     0.00073416,     0.00073416) ppm
dia1(k,t,iat1,ispin)=(  3,  1,  8,  1)=(    -0.00041661,    -0.00041661) ppm
dia1(k,t,iat1,ispin)=(  3,  2,  8,  1)=(    -0.00013325,    -0.00013325) ppm
dia1(k,t,iat1,ispin)=(  3,  3,  8,  1)=(    16.14767181,    16.14767181) ppm
(dia2,par1)(k,t,iat1,spin)=(  1,  1,  8,  1)=(     5.80654510,     5.80654510,     0.37754123,     0.37754123) ppm
(dia2,par1)(k,t,iat1,spin)=(  2,  1,  8,  1)=(    -0.81477562,    -0.81477562,     0.42634918,     0.42634918) ppm
(dia2,par1)(k,t,iat1,spin)=(  3,  1,  8,  1)=(     0.00073358,     0.00073358,     0.00186938,     0.00186938) ppm
(dia2,par1)(k,t,iat1,spin)=(  1,  2,  8,  1)=(    -1.37498257,    -1.37498257,    -1.31197048,    -1.31197048) ppm
(dia2,par1)(k,t,iat1,spin)=(  2,  2,  8,  1)=(     0.11560345,     0.11560345,    -0.93794347,    -0.93794347) ppm
(dia2,par1)(k,t,iat1,spin)=(  3,  2,  8,  1)=(    -0.00309109,    -0.00309109,     0.00014732,     0.00014732) ppm
(dia2,par1)(k,t,iat1,spin)=(  1,  3,  8,  1)=(     0.00074122,     0.00074122,    -0.00008643,    -0.00008643) ppm
(dia2,par1)(k,t,iat1,spin)=(  2,  3,  8,  1)=(     0.00061405,     0.00061405,     0.00006270,     0.00006270) ppm
(dia2,par1)(k,t,iat1,spin)=(  3,  3,  8,  1)=(     5.80434729,     5.80434729,     1.19915290,     1.19915290) ppm
dia1(k,t,iat1,ispin)=(  1,  1,  9,  1)=(    37.08914529,    37.08914529) ppm
dia1(k,t,iat1,ispin)=(  1,  2,  9,  1)=(    -8.34220001,    -8.34220001) ppm
dia1(k,t,iat1,ispin)=(  1,  3,  9,  1)=(     0.00140976,     0.00140976) ppm
dia1(k,t,iat1,ispin)=(  2,  1,  9,  1)=(    -7.64601784,    -7.64601784) ppm
dia1(k,t,iat1,ispin)=(  2,  2,  9,  1)=(    24.97280355,    24.97280355) ppm
dia1(k,t,iat1,ispin)=(  2,  3,  9,  1)=(     0.00145530,     0.00145530) ppm
dia1(k,t,iat1,ispin)=(  3,  1,  9,  1)=(    -0.00071094,    -0.00071094) ppm
dia1(k,t,iat1,ispin)=(  3,  2,  9,  1)=(     0.00005280,     0.00005280) ppm
dia1(k,t,iat1,ispin)=(  3,  3,  9,  1)=(    15.12767820,    15.12767820) ppm
(dia2,par1)(k,t,iat1,spin)=(  1,  1,  9,  1)=(     1.52241855,     1.52241855,    -0.17273714,    -0.17273714) ppm
(dia2,par1)(k,t,iat1,spin)=(  2,  1,  9,  1)=(     3.23914029,     3.23914029,    -0.10800502,    -0.10800502) ppm
(dia2,par1)(k,t,iat1,spin)=(  3,  1,  9,  1)=(     0.00160909,     0.00160909,    -0.00077357,    -0.00077357) ppm
(dia2,par1)(k,t,iat1,spin)=(  1,  2,  9,  1)=(     3.30895003,     3.30895003,    -0.61495463,    -0.61495463) ppm
(dia2,par1)(k,t,iat1,spin)=(  2,  2,  9,  1)=(     3.95769810,     3.95769810,    -0.44221518,    -0.44221518) ppm
(dia2,par1)(k,t,iat1,spin)=(  3,  2,  9,  1)=(    -0.00211010,    -0.00211010,    -0.00212303,    -0.00212303) ppm
(dia2,par1)(k,t,iat1,spin)=(  1,  3,  9,  1)=(     0.00367200,     0.00367200,     0.00003023,     0.00003023) ppm
(dia2,par1)(k,t,iat1,spin)=(  2,  3,  9,  1)=(    -0.00004031,    -0.00004031,    -0.00007108,    -0.00007108) ppm
(dia2,par1)(k,t,iat1,spin)=(  3,  3,  9,  1)=(     6.02630644,     6.02630644,    -0.73628165,    -0.73628165) ppm

 Wrote ZORA NMR data to ./CC(=C)Cl_mol_4_conformer_0.zora_nmrcs

(nogshift,skip_gshiftAOev,done_Fji)=( 1,F,T)


         Total DFT energy =     -579.746117090608
      One electron energy =    -1083.869157957164
           Coulomb energy =      404.775495808914
    Exchange-Corr. energy =      -46.478633305625
 Nuclear repulsion energy =      145.575775799898

             COSMO energy =        0.250402563369

       Scaling correction =        0.810205781361

 Numeric. integr. density =       40.000001407647

     Total iterative time =     59.9s


                                   COSMO solvation results
                                   -----------------------

                 gas phase energy =      -579.740921705600
                 sol phase energy =      -579.746117090608
 (electrostatic) solvation energy =         0.005195385008 (    3.26 kcal/mol)

 center of mass
 --------------
 x =   0.00893702 y =   0.18912079 z =   0.00000000

 moments of inertia (a.u.)
 ------------------
         392.291481212112          -8.079619086983           0.000000000000
          -8.079619086983         197.406813242212           0.000000000000
           0.000000000000           0.000000000000         578.455217293108

            Scalar ZORA NMR Shielding
            -------------------------


          -----------------------------------------
          Chemical Shielding Tensors (GIAO, in ppm)
          -----------------------------------------


 Read ZORA NMR data from ./CC(=C)Cl_mol_4_conformer_0.zora_nmrcs

    0 giaofock schwarz done =      83.84%
    0 giaofock schwarz done =      82.78%
                                NWChem CPHF Module
                                ------------------



 solvent parameters
 solvname_short: cdcl3   
 solvname_long:  unknown                            
 dielec:       78.4000
 dielecinf:     1.7769

          ---------------
          -cosmo- solvent
          ---------------
 Cosmo: York-Karplus, doi: 10.1021/jp992097l
 dielectric constant -eps-     =  78.40
 screen = (eps-1)/(eps    )    =   0.98724
 surface charge correction     = lagrangian
 -lineq- algorithm             =   0
 -bem- low  level              =   2
 -bem- from -octahedral-
 gaussian surface charge width =   0.98000
 degree of switching           =   1.00000
 switching function tolerance  =   0.00010
 atomic radii = 
 --------------
    1  6.000  2.000
    2  6.000  2.000
    3  6.000  2.000
    4 17.000  2.050
    5  1.000  1.300
    6  1.000  1.300
    7  1.000  1.300
    8  1.000  1.300
    9  1.000  1.300

 solvent accessible surface
 --------------------------

 ---------- ATOMIC COORDINATES (A.U.) ------------ VDWR(ANG.) --
     1    2.16248139   -2.42585177    0.00000000     2.000
     2   -0.25235444   -0.93111946    0.00000000     2.000
     3   -2.60420458   -1.79004000    0.00000000     2.000
     4    0.22377711    2.54738215    0.00000000     2.050
     5    3.81087749   -1.20309867    0.00000000     1.300
     6    2.26834221   -3.63248742    1.67001371     1.300
     7    2.26834221   -3.63248742   -1.67001371     1.300
     8   -2.94244363   -3.80932134    0.00000000     1.300
     9   -4.23131537   -0.56233574    0.00000000     1.300
 number of segments per atom =         32
 number of   points per atom =         32
 atom (   nspa,  nppa )
 ----------------------
    1 (     18,     0 )       0
    2 (     10,     0 )       0
    3 (     20,     0 )       0
    4 (     26,     0 )       0
    5 (     12,     0 )       0
    6 (     15,     0 )       0
    7 (     15,     0 )       0
    8 (     14,     0 )       0
    9 (     14,     0 )       0
 number of -cosmo- surface points =      144
 molecular surface =    115.066 angstrom**2
 molecular volume  =     70.269 angstrom**3
 G(cav/disp)       =      1.435 kcal/mol
 ...... end of -cosmo- initialization ......


  scftype          =     RHF 
  nclosed          =       20
  nopen            =        0
  variables        =     1100
  # of vectors     =        3
  tolerance        = 0.10D-03
  level shift      = 0.00D+00
  max iterations   =       50
  max subspace     =       30

 SCF residual:    1.6681498934798280E-005


Iterative solution of linear equations
  No. of variables     1100
  No. of equations        3
  Maximum subspace       30
        Iterations       50
       Convergence  1.0D-04
        Start time   1030.5


   iter   nsub   residual    time
   ----  ------  --------  ---------
     1      3    4.90D-01    1033.3
     2      6    2.40D-02    1036.0
     3      9    1.79D-03    1038.9
     4     12    5.59D-05    1041.5

 Wrote CPHF data to ./CC(=C)Cl_mol_4_conformer_0.shieldcphf

 Calc. par tensor-> zora
      Atom:    1  H 
        Diamagnetic
     36.8414      2.5887     -0.0024
      2.5887     29.2515      0.0010
     -0.0024      0.0010     21.7188

        Paramagnetic
     -1.3056     -2.1249      0.0021
     -2.1249      2.1647     -0.0018
      0.0021     -0.0018      4.6928

        Total Shielding Tensor
     35.5358      0.4638     -0.0002
      0.4638     31.4162     -0.0008
     -0.0002     -0.0008     26.4116

           isotropic =      31.1212
          anisotropy =       6.6992

          Principal Components and Axis System
                 1           2           3
               35.5873     31.3646     26.4116

      1         0.9939     -0.1105      0.0000
      2         0.1105      0.9939      0.0002
      3        -0.0000     -0.0002      1.0000



      Atom:    2  H 
        Diamagnetic
     26.4461     -3.5952      2.1546
     -3.5952     30.7536     -7.7151
      2.1546     -7.7151     31.0498

        Paramagnetic
      3.1535      1.2154     -0.9868
      1.2154      0.2192      3.6830
     -0.9868      3.6830     -1.1955

        Total Shielding Tensor
     29.5996     -2.3798      1.1679
     -2.3798     30.9728     -4.0321
      1.1679     -4.0321     29.8543

           isotropic =      30.1422
          anisotropy =       8.1704

          Principal Components and Axis System
                 1           2           3
               35.5891     28.6707     26.1668

      1        -0.3959      0.8839      0.2491
      2         0.7113      0.1236      0.6919
      3        -0.5808     -0.4511      0.6777



      Atom:    3  H 
        Diamagnetic
     26.4487     -3.5954     -2.1566
     -3.5954     30.7569      7.7166
     -2.1566      7.7166     31.0529

        Paramagnetic
      3.1564      1.2149      0.9880
      1.2149      0.2201     -3.6845
      0.9880     -3.6845     -1.1954

        Total Shielding Tensor
     29.6052     -2.3805     -1.1686
     -2.3805     30.9770      4.0321
     -1.1686      4.0321     29.8575

           isotropic =      30.1466
          anisotropy =       8.1710

          Principal Components and Axis System
                 1           2           3
               35.5939     28.6751     26.1707

      1        -0.3961      0.8838     -0.2489
      2         0.7113      0.1239     -0.6919
      3         0.5807      0.4511      0.6778



      Atom:    4  H 
        Diamagnetic
     28.2527      5.2989      0.0009
      5.2989     39.8956     -0.0009
      0.0009     -0.0009     21.9520

        Paramagnetic
      1.3614     -2.6968     -0.0009
     -2.6968    -14.2969      0.0005
     -0.0009      0.0005      3.8975

        Total Shielding Tensor
     29.6141      2.6021      0.0000
      2.6021     25.5987     -0.0004
      0.0000     -0.0004     25.8495

           isotropic =      27.0208
          anisotropy =       5.8084

          Principal Components and Axis System
                 1           2           3
               30.8930     25.8495     24.3198

      1         0.8975      0.0001     -0.4411
      2         0.4411     -0.0002      0.8975
      3        -0.0000      1.0000      0.0002



      Atom:    5  H 
        Diamagnetic
     38.6116     -4.7201      0.0030
     -4.7201     28.9305     -0.0003
      0.0030     -0.0003     21.1540

        Paramagnetic
     -7.4546      6.9263     -0.0001
      6.9263     -4.2858      0.0010
     -0.0001      0.0010      4.6486

        Total Shielding Tensor
     31.1570      2.2063      0.0029
      2.2063     24.6447      0.0007
      0.0029      0.0007     25.8026

           isotropic =      27.2014
          anisotropy =       6.9489

          Principal Components and Axis System
                 1           2           3
               31.8340     25.8026     23.9677

      1         0.9560     -0.0004     -0.2934
      2         0.2934     -0.0003      0.9560
      3         0.0005      1.0000      0.0001




 Task  times  cpu:       86.9s     wall:       84.4s


                                NWChem Input Module
                                -------------------


 Summary of allocated global arrays
-----------------------------------
  array 0 => double precision sf 1(75,75),  handle: -987 
  array 1 => double precision sf 1(75,75),  handle: -986 
  array 2 => double precision sf 1(75,75),  handle: -985 
  array 3 => double precision sf 1(75,75),  handle: -984 
  array 4 => double precision sf 1(75,75),  handle: -983 
  array 5 => double precision sf 1(75,75),  handle: -982 
  array 6 => double precision sf 1(75,75),  handle: -981 
  array 7 => double precision sf 1(75,75),  handle: -980 
  array 8 => double precision sf 1(75,75),  handle: -979 
  array 9 => double precision sf 1(75,75),  handle: -978 
  array 10 => double precision sf 1(75,75),  handle: -977 
  array 11 => double precision sf 1(75,75),  handle: -976 
  array 12 => double precision sf 1(75,75),  handle: -975 
  array 13 => double precision sf 1(75,75),  handle: -974 
  array 14 => double precision sf 1(75,75),  handle: -973 
  array 15 => double precision sf 1(75,75),  handle: -972 
  array 16 => double precision sf 1(75,75),  handle: -971 
  array 17 => double precision sf 1(75,75),  handle: -970 
  array 18 => double precision sf 1(75,75),  handle: -969 
  array 19 => double precision sf 1(75,75),  handle: -968 
  array 20 => double precision sf 1(75,75),  handle: -967 
  array 21 => double precision sf 1(75,75),  handle: -966 
  array 22 => double precision sf 1(75,75),  handle: -965 
  array 23 => double precision sf 1(75,75),  handle: -964 
  array 24 => double precision sf 1(75,75),  handle: -963 
  array 25 => double precision sf 1(75,75),  handle: -962 
  array 26 => double precision sf 1(75,75),  handle: -961 
  array 27 => double precision sf 1(75,75),  handle: -960 
  array 28 => double precision sf 1(75,75),  handle: -959 
  array 29 => double precision sf 1(75,75),  handle: -958 
  array 30 => double precision sf 1(75,75),  handle: -957 
  array 31 => double precision sf 1(75,75),  handle: -956 
  array 32 => double precision sf 1(75,75),  handle: -955 
  array 33 => double precision sf 1(75,75),  handle: -954 
  array 34 => double precision sf 1(75,75),  handle: -953 
  array 35 => double precision sf 1(75,75),  handle: -952 
  array 36 => double precision sf 1(75,75),  handle: -951 
  array 37 => double precision sf 1(75,75),  handle: -950 
  array 38 => double precision sf 1(75,75),  handle: -949 
  array 39 => double precision sf 1(75,75),  handle: -948 
  array 40 => double precision sf 1(75,75),  handle: -947 
  array 41 => double precision sf 1(75,75),  handle: -946 
  array 42 => double precision sf 1(75,75),  handle: -945 
  array 43 => double precision sf 1(75,75),  handle: -944 
  array 44 => double precision sf 1(75,75),  handle: -943 
  array 45 => double precision sf 1(75,75),  handle: -942 
  array 46 => double precision sf 1(75,75),  handle: -941 
  array 47 => double precision sf 1(75,75),  handle: -940 
  array 48 => double precision sf 1(75,75),  handle: -939 
  array 49 => double precision sf 1(75,75),  handle: -938 
  array 50 => double precision sf 1(75,75),  handle: -937 
  array 51 => double precision sf 1(75,75),  handle: -936 
  array 52 => double precision sf 1(75,75),  handle: -935 
  array 53 => double precision sf 1(75,75),  handle: -934 
  array 54 => double precision sf 1(75,75),  handle: -933 
  array 55 => double precision sf 1(75,75),  handle: -932 
  array 56 => double precision sf 1(75,75),  handle: -931 



                         GA Statistics for process    0
                         ------------------------------

       create   destroy   get      put      acc     scatter   gather  read&inc
calls: 8660     8298     3.14e+05 5.33e+04 8.10e+04   60        0     1.04e+04 
number of processes/call 0.00e+00 0.00e+00 0.00e+00 0.00e+00 0.00e+00
bytes total:             4.05e+08 5.82e+07 3.38e+08 4.48e+02 0.00e+00 8.34e+04
bytes remote:            3.58e+08 4.99e+07 3.10e+08 -2.24e+02 0.00e+00 0.00e+00
Max memory consumed for GA by this process: 660432 bytes

MA_summarize_allocated_blocks: starting scan ...
MA_summarize_allocated_blocks: scan completed: 0 heap blocks, 0 stack blocks
MA usage statistics:

	allocation statistics:
					      heap	     stack
					      ----	     -----
	current number of blocks	         0	         0
	maximum number of blocks	        66	        59
	current total bytes		         0	         0
	maximum total bytes		   2300776	  24872376
	maximum total K-bytes		      2301	     24873
	maximum total M-bytes		         3	        25


                                     CITATION
                                     --------
                Please cite the following reference when publishing
                           results obtained with NWChem:

          E. Apr, E. J. Bylaska, W. A. de Jong, N. Govind, K. Kowalski,
       T. P. Straatsma, M. Valiev, H. J. J. van Dam, Y. Alexeev, J. Anchell,
       V. Anisimov, F. W. Aquino, R. Atta-Fynn, J. Autschbach, N. P. Bauman,
     J. C. Becca, D. E. Bernholdt, K. Bhaskaran-Nair, S. Bogatko, P. Borowski,
        J. Boschen, J. Brabec, A. Bruner, E. Caut, Y. Chen, G. N. Chuev,
      C. J. Cramer, J. Daily, M. J. O. Deegan, T. H. Dunning Jr., M. Dupuis,
   K. G. Dyall, G. I. Fann, S. A. Fischer, A. Fonari, H. Frchtl, L. Gagliardi,
      J. Garza, N. Gawande, S. Ghosh, K. Glaesemann, A. W. Gtz, J. Hammond,
       V. Helms, E. D. Hermes, K. Hirao, S. Hirata, M. Jacquelin, L. Jensen,
   B. G. Johnson, H. Jnsson, R. A. Kendall, M. Klemm, R. Kobayashi, V. Konkov,
      S. Krishnamoorthy, M. Krishnan, Z. Lin, R. D. Lins, R. J. Littlefield,
      A. J. Logsdail, K. Lopata, W. Ma, A. V. Marenich, J. Martin del Campo,
   D. Mejia-Rodriguez, J. E. Moore, J. M. Mullin, T. Nakajima, D. R. Nascimento,
    J. A. Nichols, P. J. Nichols, J. Nieplocha, A. Otero-de-la-Roza, B. Palmer,
    A. Panyala, T. Pirojsirikul, B. Peng, R. Peverati, J. Pittner, L. Pollack,
   R. M. Richard, P. Sadayappan, G. C. Schatz, W. A. Shelton, D. W. Silverstein,
   D. M. A. Smith, T. A. Soares, D. Song, M. Swart, H. L. Taylor, G. S. Thomas,
            V. Tipparaju, D. G. Truhlar, K. Tsemekhman, T. Van Voorhis,
     . Vzquez-Mayagoitia, P. Verma, O. Villa, A. Vishnu, K. D. Vogiatzis,
        D. Wang, J. H. Weare, M. J. Williamson, T. L. Windus, K. Woliski,
        A. T. Wong, Q. Wu, C. Yang, Q. Yu, M. Zacharias, Z. Zhang, Y. Zhao,
                                and R. J. Harrison
                        "NWChem: Past, present, and future
                         J. Chem. Phys. 152, 184102 (2020)
                               doi:10.1063/5.0004997

                                      AUTHORS
                                      -------
     E. Apra, E. J. Bylaska, N. Govind, K. Kowalski, M. Valiev, W. A. de Jong,
      T. P. Straatsma, H. J. J. van Dam, D. Wang, T. L. Windus, N. P. Bauman,
       A. Panyala, J. Hammond, J. Autschbach, K. Bhaskaran-Nair, J. Brabec,
    K. Lopata, S. A. Fischer, S. Krishnamoorthy, M. Jacquelin, W. Ma, M. Klemm,
       O. Villa, Y. Chen, V. Anisimov, F. Aquino, S. Hirata, M. T. Hackler,
           Eric Hermes, L. Jensen, J. E. Moore, J. C. Becca, V. Konjkov,
            D. Mejia-Rodriguez, T. Risthaus, M. Malagoli, A. Marenich,
   A. Otero-de-la-Roza, J. Mullin, P. Nichols, R. Peverati, J. Pittner, Y. Zhao,
        P.-D. Fan, A. Fonari, M. J. Williamson, R. J. Harrison, J. R. Rehr,
      M. Dupuis, D. Silverstein, D. M. A. Smith, J. Nieplocha, V. Tipparaju,
      M. Krishnan, B. E. Van Kuiken, A. Vazquez-Mayagoitia, M. Swart, Q. Wu,
   T. Van Voorhis, A. A. Auer, M. Nooijen, L. D. Crosby, E. Brown, G. Cisneros,
     G. I. Fann, H. Fruchtl, J. Garza, K. Hirao, R. A. Kendall, J. A. Nichols,
       K. Tsemekhman, K. Wolinski, J. Anchell, D. E. Bernholdt, P. Borowski,
       T. Clark, D. Clerc, H. Dachsel, M. J. O. Deegan, K. Dyall, D. Elwood,
      E. Glendening, M. Gutowski, A. C. Hess, J. Jaffe, B. G. Johnson, J. Ju,
        R. Kobayashi, R. Kutteh, Z. Lin, R. Littlefield, X. Long, B. Meng,
      T. Nakajima, S. Niu, L. Pollack, M. Rosing, K. Glaesemann, G. Sandrone,
      M. Stave, H. Taylor, G. Thomas, J. H. van Lenthe, A. T. Wong, Z. Zhang.

 Total times  cpu:     1094.5s     wall:     1041.8s
