 argument  1 = CC(=C)Cl_mol_0_conformer_0.nw



============================== echo of input deck ==============================
start

title "Molecule conformer 0"

memory total 4000 mb

echo
geometry units angstroms
   C     -1.1059    -0.2439     0.1186
   C      0.1994     0.4732    -0.0546
   C      1.3486    -0.2065    -0.1055
   Cl     0.2194     2.2269    -0.1923
   H     -1.2644    -0.9487    -0.7249
   H     -1.9456     0.4819     0.1380
   H     -1.1022    -0.8093     1.0744
   H      1.3588    -1.2893    -0.0226
   H      2.2919     0.3155    -0.2310
end


basis spherical
* library 6-311G
end

driver
  maxiter 500
  xyz final
end

relativistic
  zora on
  zora:cutoff_NMR 1d-8
  zora:cutoff 1d-30
end

dft
  direct
  grid fine
  xc B3LYP
  mult 1
  maxiter 1500
  noprint "final vectors analysis" multipole
end

task dft optimize

task dft freq

property
  shielding 5 5 6 7 8 9
end

cosmo
   solvent cdcl3
end

task dft property
================================================================================


                                         
                                         


             Northwest Computational Chemistry Package (NWChem) 7.0.2
             --------------------------------------------------------


                    Environmental Molecular Sciences Laboratory
                       Pacific Northwest National Laboratory
                                Richland, WA 99352

                              Copyright (c) 1994-2020
                       Pacific Northwest National Laboratory
                            Battelle Memorial Institute

             NWChem is an open-source computational chemistry package
                        distributed under the terms of the
                      Educational Community License (ECL) 2.0
             A copy of the license is included with this distribution
                              in the LICENSE.TXT file

                                  ACKNOWLEDGMENT
                                  --------------

            This software and its documentation were developed at the
            EMSL at Pacific Northwest National Laboratory, a multiprogram
            national laboratory, operated for the U.S. Department of Energy
            by Battelle under Contract Number DE-AC05-76RL01830. Support
            for this work was provided by the Department of Energy Office
            of Biological and Environmental Research, Office of Basic
            Energy Sciences, and the Office of Advanced Scientific Computing.


           Job information
           ---------------

    hostname        = ponder
    program         = nwchem
    date            = Tue Aug  6 11:02:34 2024

    compiled        = Sat_Apr_09_17:12:10_2022
    source          = /build/nwchem-f1f4gx/nwchem-7.0.2/build-openmpi
    nwchem branch   = 7.0.2
    nwchem revision = N/A
    ga revision     = 5.8.1
    use scalapack   = T
    input           = CC(=C)Cl_mol_0_conformer_0.nw
    prefix          = CC(=C)Cl_mol_0_conformer_0.
    data base       = ./CC(=C)Cl_mol_0_conformer_0.db
    status          = startup
    nproc           =       40
    time left       =     -1s



           Memory information
           ------------------

    heap     =  131072000 doubles =   1000.0 Mbytes
    stack    =  131071997 doubles =   1000.0 Mbytes
    global   =  262144000 doubles =   2000.0 Mbytes (distinct from heap & stack)
    total    =  524287997 doubles =   4000.0 Mbytes
    verify   = yes
    hardfail = no 


           Directory information
           ---------------------

  0 permanent = .
  0 scratch   = .




                                NWChem Input Module
                                -------------------


                               Molecule conformer 0
                               --------------------

 Scaling coordinates for geometry "geometry" by  1.889725989
 (inverse scale =  0.529177249)

 CS  symmetry detected

          ------
          auto-z
          ------
  no constraints, skipping    0.0000000000000000     
  no constraints, skipping    0.0000000000000000     


                             Geometry "geometry" -> ""
                             -------------------------

 Output coordinates in angstroms (scale by  1.889725989 to convert to a.u.)

  No.       Tag          Charge          X              Y              Z
 ---- ---------------- ---------- -------------- -------------- --------------
    1 C                    6.0000    -1.11611581    -1.28385865     0.00000000
    2 C                    6.0000     0.10381337    -0.41218697     0.00000000
    3 C                    6.0000     1.32634348    -0.95131930     0.00000000
    4 Cl                  17.0000    -0.07487718     1.33792579     0.00000000
    5 H                    1.0000    -1.12133399    -1.92609565    -0.90598312
    6 H                    1.0000    -2.03534860    -0.66154911     0.00000000
    7 H                    1.0000    -1.12133399    -1.92609565     0.90598312
    8 H                    1.0000     1.45915788    -2.02918414     0.00000000
    9 H                    1.0000     2.20752448    -0.31762444     0.00000000

      Atomic Mass 
      ----------- 

      C                 12.000000
      Cl                34.968850
      H                  1.007825


 Effective nuclear repulsion energy (a.u.)     147.8112761765

            Nuclear Dipole moment (a.u.) 
            ----------------------------
        X                 Y               Z
 ---------------- ---------------- ----------------
    -0.0000000000    -0.0000000000     0.0000000000

      Symmetry information
      --------------------

 Group name             Cs        
 Group number              2
 Group order               2
 No. of unique centers     8

      Symmetry unique atoms

     1    2    3    4    5    6    8    9



                                Z-matrix (autoz)
                                -------- 

 Units are Angstrom for bonds and degrees for angles

      Type          Name      I     J     K     L     M      Value
      ----------- --------  ----- ----- ----- ----- ----- ----------
    1 Stretch                  1     2                       1.49935
    2 Stretch                  1     5                       1.11054
    3 Stretch                  1     6                       1.11007
    4 Stretch                  1     7                       1.11054
    5 Stretch                  2     3                       1.33613
    6 Stretch                  2     4                       1.75921
    7 Stretch                  3     8                       1.08602
    8 Stretch                  3     9                       1.08538
    9 Bend                     1     2     3               120.65585
   10 Bend                     1     2     4               119.71698
   11 Bend                     2     1     5               109.87895
   12 Bend                     2     1     6               110.35566
   13 Bend                     2     1     7               109.87895
   14 Bend                     2     3     8               120.82192
   15 Bend                     2     3     9               120.48113
   16 Bend                     3     2     4               119.62717
   17 Bend                     5     1     6               108.68177
   18 Bend                     5     1     7               109.33378
   19 Bend                     6     1     7               108.68177
   20 Bend                     8     3     9               118.69695
   21 Torsion                  1     2     3     8           0.00000
   22 Torsion                  1     2     3     9         180.00000
   23 Torsion                  3     2     1     5         -60.16881
   24 Torsion                  3     2     1     6         180.00000
   25 Torsion                  3     2     1     7          60.16881
   26 Torsion                  4     2     1     5         119.83119
   27 Torsion                  4     2     1     6           0.00000
   28 Torsion                  4     2     1     7        -119.83119
   29 Torsion                  4     2     3     8         180.00000
   30 Torsion                  4     2     3     9           0.00000


            XYZ format geometry
            -------------------
     9
 geometry
 C                    -1.11611581    -1.28385865     0.00000000
 C                     0.10381337    -0.41218697     0.00000000
 C                     1.32634348    -0.95131930     0.00000000
 Cl                   -0.07487718     1.33792579     0.00000000
 H                    -1.12133399    -1.92609565    -0.90598312
 H                    -2.03534860    -0.66154911     0.00000000
 H                    -1.12133399    -1.92609565     0.90598312
 H                     1.45915788    -2.02918414     0.00000000
 H                     2.20752448    -0.31762444     0.00000000

 ==============================================================================
                                internuclear distances
 ------------------------------------------------------------------------------
       center one      |      center two      | atomic units |  angstroms
 ------------------------------------------------------------------------------
    2 C                |   1 C                |     2.83335  |     1.49935
    3 C                |   2 C                |     2.52492  |     1.33613
    4 Cl               |   2 C                |     3.32443  |     1.75921
    5 H                |   1 C                |     2.09862  |     1.11054
    6 H                |   1 C                |     2.09773  |     1.11007
    7 H                |   1 C                |     2.09862  |     1.11054
    8 H                |   3 C                |     2.05227  |     1.08602
    9 H                |   3 C                |     2.05107  |     1.08538
 ------------------------------------------------------------------------------
                         number of included internuclear distances:          8
 ==============================================================================



 ==============================================================================
                                 internuclear angles
 ------------------------------------------------------------------------------
        center 1       |       center 2       |       center 3       |  degrees
 ------------------------------------------------------------------------------
    2 C                |   1 C                |   5 H                |   109.88
    2 C                |   1 C                |   6 H                |   110.36
    2 C                |   1 C                |   7 H                |   109.88
    5 H                |   1 C                |   6 H                |   108.68
    5 H                |   1 C                |   7 H                |   109.33
    6 H                |   1 C                |   7 H                |   108.68
    1 C                |   2 C                |   3 C                |   120.66
    1 C                |   2 C                |   4 Cl               |   119.72
    3 C                |   2 C                |   4 Cl               |   119.63
    2 C                |   3 C                |   8 H                |   120.82
    2 C                |   3 C                |   9 H                |   120.48
    8 H                |   3 C                |   9 H                |   118.70
 ------------------------------------------------------------------------------
                            number of included internuclear angles:         12
 ==============================================================================





 Summary of "ao basis" -> "" (spherical)
 ------------------------------------------------------------------------------
       Tag                 Description            Shells   Functions and Types
 ---------------- ------------------------------  ------  ---------------------
 *                           6-311G                   on all atoms 




                           NWChem Geometry Optimization
                           ----------------------------




                               Molecule conformer 0


  no constraints, skipping    0.0000000000000000     
 maximum gradient threshold         (gmax) =   0.000450
 rms gradient threshold             (grms) =   0.000300
 maximum cartesian step threshold   (xmax) =   0.001800
 rms cartesian step threshold       (xrms) =   0.001200
 fixed trust radius                (trust) =   0.300000
 maximum step size to saddle      (sadstp) =   0.100000
 energy precision                  (eprec) =   5.0D-06
 maximum number of steps          (nptopt) =  500
 initial hessian option           (inhess) =    0
 line search option               (linopt) =    1
 hessian update option            (modupd) =    1
 saddle point option              (modsad) =    0
 initial eigen-mode to follow     (moddir) =    0
 initial variable to follow       (vardir) =    0
 follow first negative mode     (firstneg) =    T
 apply conjugacy                    (opcg) =    F
 source of zmatrix                         =   autoz   


          -------------------
          Energy Minimization
          -------------------


 Names of Z-matrix variables 
    1              2              3              4              5         
    6              7              8              9             10         
   11             12             13             14             15         
   16             17             18             19             20         
   21             22             23             24             25         
   26             27             28             29             30         

 Variables with the same non-blank name are constrained to be equal


 Using diagonal initial Hessian 
 Scaling for Hessian diagonals: bonds = 1.00  angles = 0.25  torsions = 0.10

          --------
          Step   0
          --------


                         Geometry "geometry" -> "geometry"
                         ---------------------------------

 Output coordinates in angstroms (scale by  1.889725989 to convert to a.u.)

  No.       Tag          Charge          X              Y              Z
 ---- ---------------- ---------- -------------- -------------- --------------
    1 C                    6.0000    -1.11611581    -1.28385865     0.00000000
    2 C                    6.0000     0.10381337    -0.41218697     0.00000000
    3 C                    6.0000     1.32634348    -0.95131930     0.00000000
    4 Cl                  17.0000    -0.07487718     1.33792579     0.00000000
    5 H                    1.0000    -1.12133399    -1.92609565    -0.90598312
    6 H                    1.0000    -2.03534860    -0.66154911     0.00000000
    7 H                    1.0000    -1.12133399    -1.92609565     0.90598312
    8 H                    1.0000     1.45915788    -2.02918414     0.00000000
    9 H                    1.0000     2.20752448    -0.31762444     0.00000000

      Atomic Mass 
      ----------- 

      C                 12.000000
      Cl                34.968850
      H                  1.007825


 Effective nuclear repulsion energy (a.u.)     147.8112761765

            Nuclear Dipole moment (a.u.) 
            ----------------------------
        X                 Y               Z
 ---------------- ---------------- ----------------
    -0.0000000000    -0.0000000000     0.0000000000

      Symmetry information
      --------------------

 Group name             Cs        
 Group number              2
 Group order               2
 No. of unique centers     8

      Symmetry unique atoms

     1    2    3    4    5    6    8    9


                                 NWChem DFT Module
                                 -----------------


                               Molecule conformer 0


                      Basis "ao basis" -> "ao basis" (spherical)
                      -----
  C (Carbon)
  ----------
            Exponent  Coefficients 
       -------------- ---------------------------------------------------------
  1 S  4.56324000E+03  0.001967
  1 S  6.82024000E+02  0.015231
  1 S  1.54973000E+02  0.076127
  1 S  4.44553000E+01  0.260801
  1 S  1.30290000E+01  0.616462
  1 S  1.82773000E+00  0.221006

  2 S  2.09642000E+01  0.114660
  2 S  4.80331000E+00  0.919999
  2 S  1.45933000E+00 -0.003031

  3 P  2.09642000E+01  0.040249
  3 P  4.80331000E+00  0.237594
  3 P  1.45933000E+00  0.815854

  4 S  4.83456000E-01  1.000000

  5 P  4.83456000E-01  1.000000

  6 S  1.45585000E-01  1.000000

  7 P  1.45585000E-01  1.000000

  Cl (Chlorine)
  -------------
            Exponent  Coefficients 
       -------------- ---------------------------------------------------------
  1 S  1.05819000E+05  0.000738
  1 S  1.58720000E+04  0.005718
  1 S  3.61965000E+03  0.029495
  1 S  1.03080000E+03  0.117286
  1 S  3.39908000E+02  0.362949
  1 S  1.24538000E+02  0.584149

  2 S  1.24538000E+02  0.134177
  2 S  4.95135000E+01  0.624250
  2 S  2.08056000E+01  0.291756

  3 S  6.58346000E+00  1.000000

  4 S  2.56468000E+00  1.000000

  5 S  5.59763000E-01  1.000000

  6 S  1.83273000E-01  1.000000

  7 P  5.89776000E+02  0.002391
  7 P  1.39849000E+02  0.018504
  7 P  4.51413000E+01  0.081377
  7 P  1.68733000E+01  0.221552
  7 P  6.74110000E+00  0.772569

  8 P  6.74110000E+00 -1.572244
  8 P  2.77152000E+00  0.992389

  9 P  1.02387000E+00  1.000000

 10 P  3.81368000E-01  1.000000

 11 P  1.09437000E-01  1.000000

  H (Hydrogen)
  ------------
            Exponent  Coefficients 
       -------------- ---------------------------------------------------------
  1 S  3.38650000E+01  0.025494
  1 S  5.09479000E+00  0.190373
  1 S  1.15879000E+00  0.852161

  2 S  3.25840000E-01  1.000000

  3 S  1.02741000E-01  1.000000



 Summary of "ao basis" -> "ao basis" (spherical)
 ------------------------------------------------------------------------------
       Tag                 Description            Shells   Functions and Types
 ---------------- ------------------------------  ------  ---------------------
 C                           6-311G                  7       13   4s3p
 Cl                          6-311G                 11       21   6s5p
 H                           6-311G                  3        3   3s




 Summary of "ao basis" -> "ao basis" (spherical)
 ------------------------------------------------------------------------------
       Tag                 Description            Shells   Functions and Types
 ---------------- ------------------------------  ------  ---------------------
 C                           6-311G                  7       13   4s3p
 Cl                          6-311G                 11       21   6s5p
 H                           6-311G                  3        3   3s


      Symmetry analysis of basis
      --------------------------

        a'         58
        a"         17

  Caching 1-el integrals 

            General Information
            -------------------
          SCF calculation type: DFT
          Wavefunction type:  closed shell.
          No. of atoms     :     9
          No. of electrons :    40
           Alpha electrons :    20
            Beta electrons :    20
          Charge           :     0
          Spin multiplicity:     1
          Use of symmetry is: on ; symmetry adaption is: on 
          Maximum number of iterations: ***
          This is a Direct SCF calculation.
          AO basis - number of functions:    75
                     number of shells:    47
          Convergence on energy requested:  1.00D-06
          Convergence on density requested:  1.00D-05
          Convergence on gradient requested:  5.00D-04

              XC Information
              --------------
                         B3LYP Method XC Potential
                     Hartree-Fock (Exact) Exchange  0.200          
                        Slater Exchange Functional  0.800 local    
                    Becke 1988 Exchange Functional  0.720 non-local
              Lee-Yang-Parr Correlation Functional  0.810          
                  VWN I RPA Correlation Functional  0.190 local    

             Grid Information
             ----------------
          Grid used for XC integration:  fine      
          Radial quadrature: Mura-Knowles        
          Angular quadrature: Lebedev. 
          Tag              B.-S. Rad. Rad. Pts. Rad. Cut. Ang. Pts.
          ---              ---------- --------- --------- ---------
          C                   0.70       70          11.0       590
          Cl                  1.00      123          11.0       770
          H                   0.35       60          12.0       590
          Grid pruning is: on 
          Number of quadrature shells:   573
          Spatial weights used:  Erf1

          Convergence Information
          -----------------------
          Convergence aids based upon iterative change in 
          total energy or number of iterations. 
          Levelshifting, if invoked, occurs when the 
          HOMO/LUMO gap drops below (HL_TOL):  1.00D-02
          DIIS, if invoked, will attempt to extrapolate 
          using up to (NFOCK): 10 stored Fock matrices.

                    Damping( 0%)  Levelshifting(0.5)       DIIS
                  --------------- ------------------- ---------------
          dE  on:    start            ASAP                start   
          dE off:    2 iters        *** iters           *** iters 


      Screening Tolerance Information
      -------------------------------
          Density screening/tol_rho:  1.00D-10
          AO Gaussian exp screening on grid/accAOfunc:  14
          CD Gaussian exp screening on grid/accCDfunc:  20
          XC Gaussian exp screening on grid/accXCfunc:  20
          Schwarz screening/accCoul:  1.00D-08

          Performing ZORA calculations
          ----------------------------


      Superposition of Atomic Density Guess
      -------------------------------------

 Sum of atomic energies:        -574.98156165

 Read atomic ZORA corrections from ./CC(=C)Cl_mol_0_conformer_0.zora_sf

 dft_zora_read: failed to open./CC(=C)Cl_mol_0_conformer_0.zora_sf
 Forcing recalculation of ZORA corrections
       Generating atomic ZORA corrections
       ----------------------------------

 In dft_scf:: zora:Knucl= F

 Grid_pts file          = ./CC(=C)Cl_mol_0_conformer_0.gridpts.00
 Record size in doubles =  12289        No. of grid_pts per rec  =   3070
 Max. records in memory =      5        Max. recs in file   =     13517


 Wrote atomic ZORA corrections to ./CC(=C)Cl_mol_0_conformer_0.zora_sf


      Superposition of Atomic Density Guess
      -------------------------------------

 Sum of atomic energies:        -574.98156165

      Non-variational initial energy
      ------------------------------

 Total energy =    -577.070952
 1-e energy   =   -1082.061537
 2-e energy   =     357.179309
 HOMO         =      -0.276827
 LUMO         =       0.026850


      Symmetry analysis of molecular orbitals - initial
      -------------------------------------------------

  Numbering of irreducible representations: 

     1 a'          2 a"      

  Orbital symmetries:

     1 a'          2 a'          3 a'          4 a'          5 a'      
     6 a'          7 a'          8 a"          9 a'         10 a'      
    11 a'         12 a'         13 a'         14 a'         15 a"      
    16 a'         17 a"         18 a'         19 a'         20 a"      
    21 a"         22 a'         23 a'         24 a'         25 a'      
    26 a'         27 a"         28 a'         29 a'         30 a"      

   Time after variat. SCF:      5.7
   Time prior to 1st pass:      5.7

           Memory utilization after 1st SCF pass: 
           Heap Space remaining (MW):      131.01           131006392
          Stack Space remaining (MW):      131.06           131060060

   convergence    iter        energy       DeltaE   RMS-Dens  Diis-err    time
 ---------------- ----- ----------------- --------- --------- ---------  ------
 d= 0,ls=0.0,diis     1   -579.6365814978 -7.27D+02  1.48D-02  3.77D+01     8.0
 d= 0,ls=0.0,diis     2   -579.6387974338 -2.22D-03  2.10D-02  8.01D-01    11.1
 d= 0,ls=0.0,diis     3   -579.4783525516  1.60D-01  1.30D-02  1.80D+00    13.6
 d= 0,ls=0.0,diis     4   -579.7334895798 -2.55D-01  1.49D-03  1.33D-02    15.8
 d= 0,ls=0.0,diis     5   -579.7348879482 -1.40D-03  7.51D-04  3.04D-03    18.4
  Resetting Diis
 d= 0,ls=0.0,diis     6   -579.7352947050 -4.07D-04  9.45D-05  6.31D-05    20.9
 d= 0,ls=0.0,diis     7   -579.7353006279 -5.92D-06  5.21D-05  4.16D-06    23.1
 d= 0,ls=0.0,diis     8   -579.7353003220  3.06D-07  2.59D-05  6.77D-06    24.7
 d= 0,ls=0.0,diis     9   -579.7353011777 -8.56D-07  4.06D-06  2.29D-07    26.6
(nogshift,skip_gshiftAOev,done_Fji)=( 1,F,F)


         Total DFT energy =     -579.735301177712
      One electron energy =    -1087.839803062885
           Coulomb energy =      406.775733568229
    Exchange-Corr. energy =      -46.482507859541
 Nuclear repulsion energy =      147.811276176484

       Scaling correction =        0.810184781243

 Numeric. integr. density =       40.000000528609

     Total iterative time =     21.0s



                  Occupations of the irreducible representations
                  ----------------------------------------------

                     irrep           alpha         beta
                     --------     --------     --------
                     a'               16.0         16.0
                     a"                4.0          4.0


 center of mass
 --------------
 x =   0.01327656 y =   0.20146131 z =   0.00000000

 moments of inertia (a.u.)
 ------------------
         386.514577462714          -0.000000001435           0.000000000000
          -0.000000001435         184.986570273265           0.000000000000
           0.000000000000           0.000000000000         559.684806977788

            General Information
            -------------------
          SCF calculation type: DFT
          Wavefunction type:  closed shell.
          No. of atoms     :     9
          No. of electrons :    40
           Alpha electrons :    20
            Beta electrons :    20
          Charge           :     0
          Spin multiplicity:     1
          Use of symmetry is: on ; symmetry adaption is: on 
          Maximum number of iterations: ***
          This is a Direct SCF calculation.
          AO basis - number of functions:    75
                     number of shells:    47
          Convergence on energy requested:  1.00D-06
          Convergence on density requested:  1.00D-05
          Convergence on gradient requested:  5.00D-04

              XC Information
              --------------
                         B3LYP Method XC Potential
                     Hartree-Fock (Exact) Exchange  0.200          
                        Slater Exchange Functional  0.800 local    
                    Becke 1988 Exchange Functional  0.720 non-local
              Lee-Yang-Parr Correlation Functional  0.810          
                  VWN I RPA Correlation Functional  0.190 local    

             Grid Information
             ----------------
          Grid used for XC integration:  fine      
          Radial quadrature: Mura-Knowles        
          Angular quadrature: Lebedev. 
          Tag              B.-S. Rad. Rad. Pts. Rad. Cut. Ang. Pts.
          ---              ---------- --------- --------- ---------
          C                   0.70       70          11.0       590
          Cl                  1.00      123          11.0       770
          H                   0.35       60          12.0       590
          Grid pruning is: on 
          Number of quadrature shells:   573
          Spatial weights used:  Erf1

          Convergence Information
          -----------------------
          Convergence aids based upon iterative change in 
          total energy or number of iterations. 
          Levelshifting, if invoked, occurs when the 
          HOMO/LUMO gap drops below (HL_TOL):  1.00D-02
          DIIS, if invoked, will attempt to extrapolate 
          using up to (NFOCK): 10 stored Fock matrices.

                    Damping( 0%)  Levelshifting(0.5)       DIIS
                  --------------- ------------------- ---------------
          dE  on:    start            ASAP                start   
          dE off:    2 iters        *** iters           *** iters 


      Screening Tolerance Information
      -------------------------------
          Density screening/tol_rho:  1.00D-10
          AO Gaussian exp screening on grid/accAOfunc:  14
          CD Gaussian exp screening on grid/accCDfunc:  20
          XC Gaussian exp screening on grid/accXCfunc:  20
          Schwarz screening/accCoul:  1.00D-08



                            NWChem DFT Gradient Module
                            --------------------------


                               Molecule conformer 0



  charge          =   0.00
  wavefunction    = closed shell

  Using symmetry


                         DFT ENERGY GRADIENTS

    atom               coordinates                        gradient
                 x          y          z           x          y          z
   1 C      -2.109153  -2.426141   0.000000    0.019103  -0.004709   0.000000
   2 C       0.196179  -0.778920   0.000000   -0.021236   0.044553   0.000000
   3 C       2.506426  -1.797733   0.000000   -0.002356  -0.012899   0.000000
   4 Cl     -0.141497   2.528313   0.000000    0.007622  -0.027448   0.000000
   5 H      -2.119014  -3.639793  -1.712060    0.002281  -0.006200  -0.010857
   6 H      -3.846251  -1.250147   0.000000   -0.008466   0.011142   0.000000
   7 H      -2.119014  -3.639793   1.712060    0.002281  -0.006200   0.010857
   8 H       2.757409  -3.834602   0.000000    0.000472  -0.003319   0.000000
   9 H       4.171616  -0.600223   0.000000    0.000299   0.005080   0.000000

                 ----------------------------------------
                 |  Time  |  1-e(secs)   |  2-e(secs)   |
                 ----------------------------------------
                 |  CPU   |       0.00   |       0.11   |
                 ----------------------------------------
                 |  WALL  |       0.00   |       0.11   |
                 ----------------------------------------
  no constraints, skipping    0.0000000000000000     

@ Step       Energy      Delta E   Gmax     Grms     Xrms     Xmax   Walltime
@ ---- ---------------- -------- -------- -------- -------- -------- --------
@    0    -579.73530118  0.0D+00  0.02808  0.00728  0.00000  0.00000     28.8
                                                                    



                                Z-matrix (autoz)
                                -------- 

 Units are Angstrom for bonds and degrees for angles

      Type          Name      I     J     K     L     M      Value     Gradient
      ----------- --------  ----- ----- ----- ----- ----- ---------- ----------
    1 Stretch                  1     2                       1.49935   -0.00890
    2 Stretch                  1     5                       1.11054    0.01243
    3 Stretch                  1     6                       1.11007    0.01326
    4 Stretch                  1     7                       1.11054    0.01243
    5 Stretch                  2     3                       1.33613    0.00304
    6 Stretch                  2     4                       1.75921   -0.02808
    7 Stretch                  3     8                       1.08602    0.00335
    8 Stretch                  3     9                       1.08538    0.00321
    9 Bend                     1     2     3               120.65585   -0.00956
   10 Bend                     1     2     4               119.71698    0.00899
   11 Bend                     2     1     5               109.87895   -0.00117
   12 Bend                     2     1     6               110.35566   -0.00296
   13 Bend                     2     1     7               109.87895   -0.00117
   14 Bend                     2     3     8               120.82192    0.00147
   15 Bend                     2     3     9               120.48113   -0.00288
   16 Bend                     3     2     4               119.62717    0.00056
   17 Bend                     5     1     6               108.68177    0.00198
   18 Bend                     5     1     7               109.33378    0.00144
   19 Bend                     6     1     7               108.68177    0.00198
   20 Bend                     8     3     9               118.69695    0.00141
   21 Torsion                  1     2     3     8           0.00000    0.00000
   22 Torsion                  1     2     3     9         180.00000    0.00000
   23 Torsion                  3     2     1     5         -60.16881   -0.00015
   24 Torsion                  3     2     1     6         180.00000    0.00000
   25 Torsion                  3     2     1     7          60.16881    0.00015
   26 Torsion                  4     2     1     5         119.83119   -0.00015
   27 Torsion                  4     2     1     6           0.00000   -0.00000
   28 Torsion                  4     2     1     7        -119.83119    0.00015
   29 Torsion                  4     2     3     8         180.00000   -0.00000
   30 Torsion                  4     2     3     9           0.00000    0.00000

  no constraints, skipping    0.0000000000000000     
  no constraints, skipping    0.0000000000000000     
  no constraints, skipping    0.0000000000000000     
  no constraints, skipping    0.0000000000000000     
  no constraints, skipping    0.0000000000000000     
  no constraints, skipping    0.0000000000000000     
  no constraints, skipping    0.0000000000000000     
  no constraints, skipping    0.0000000000000000     

                                 NWChem DFT Module
                                 -----------------


                               Molecule conformer 0




 Summary of "ao basis" -> "ao basis" (spherical)
 ------------------------------------------------------------------------------
       Tag                 Description            Shells   Functions and Types
 ---------------- ------------------------------  ------  ---------------------
 C                           6-311G                  7       13   4s3p
 Cl                          6-311G                 11       21   6s5p
 H                           6-311G                  3        3   3s


      Symmetry analysis of basis
      --------------------------

        a'         58
        a"         17

  Caching 1-el integrals 

            General Information
            -------------------
          SCF calculation type: DFT
          Wavefunction type:  closed shell.
          No. of atoms     :     9
          No. of electrons :    40
           Alpha electrons :    20
            Beta electrons :    20
          Charge           :     0
          Spin multiplicity:     1
          Use of symmetry is: on ; symmetry adaption is: on 
          Maximum number of iterations: ***
          This is a Direct SCF calculation.
          AO basis - number of functions:    75
                     number of shells:    47
          Convergence on energy requested:  1.00D-06
          Convergence on density requested:  1.00D-05
          Convergence on gradient requested:  5.00D-04

              XC Information
              --------------
                         B3LYP Method XC Potential
                     Hartree-Fock (Exact) Exchange  0.200          
                        Slater Exchange Functional  0.800 local    
                    Becke 1988 Exchange Functional  0.720 non-local
              Lee-Yang-Parr Correlation Functional  0.810          
                  VWN I RPA Correlation Functional  0.190 local    

             Grid Information
             ----------------
          Grid used for XC integration:  fine      
          Radial quadrature: Mura-Knowles        
          Angular quadrature: Lebedev. 
          Tag              B.-S. Rad. Rad. Pts. Rad. Cut. Ang. Pts.
          ---              ---------- --------- --------- ---------
          C                   0.70       70          11.0       590
          Cl                  1.00      123          11.0       770
          H                   0.35       60          12.0       590
          Grid pruning is: on 
          Number of quadrature shells:   573
          Spatial weights used:  Erf1

          Convergence Information
          -----------------------
          Convergence aids based upon iterative change in 
          total energy or number of iterations. 
          Levelshifting, if invoked, occurs when the 
          HOMO/LUMO gap drops below (HL_TOL):  1.00D-02
          DIIS, if invoked, will attempt to extrapolate 
          using up to (NFOCK): 10 stored Fock matrices.

                    Damping( 0%)  Levelshifting(0.5)       DIIS
                  --------------- ------------------- ---------------
          dE  on:    start            ASAP                start   
          dE off:    2 iters        *** iters           *** iters 


      Screening Tolerance Information
      -------------------------------
          Density screening/tol_rho:  1.00D-10
          AO Gaussian exp screening on grid/accAOfunc:  14
          CD Gaussian exp screening on grid/accCDfunc:  20
          XC Gaussian exp screening on grid/accXCfunc:  20
          Schwarz screening/accCoul:  1.00D-08

          Performing ZORA calculations
          ----------------------------


      Superposition of Atomic Density Guess
      -------------------------------------

 Sum of atomic energies:        -574.98156165

 Read atomic ZORA corrections from ./CC(=C)Cl_mol_0_conformer_0.zora_sf

 Forcing recalculation of ZORA corrections
       Generating atomic ZORA corrections
       ----------------------------------

 In dft_scf:: zora:Knucl= F

 Grid_pts file          = ./CC(=C)Cl_mol_0_conformer_0.gridpts.00
 Record size in doubles =  12289        No. of grid_pts per rec  =   3070
 Max. records in memory =      5        Max. recs in file   =     13517


 Wrote atomic ZORA corrections to ./CC(=C)Cl_mol_0_conformer_0.zora_sf


 Loading old vectors from job with title :

Molecule conformer 0


      Symmetry analysis of molecular orbitals - initial
      -------------------------------------------------

  Numbering of irreducible representations: 

     1 a'          2 a"      

  Orbital symmetries:

     1 a'          2 a'          3 a'          4 a'          5 a'      
     6 a'          7 a"          8 a'          9 a'         10 a'      
    11 a'         12 a'         13 a'         14 a'         15 a"      
    16 a'         17 a'         18 a"         19 a'         20 a"      
    21 a"         22 a'         23 a'         24 a'         25 a'      
    26 a'         27 a"         28 a'         29 a'         30 a"      

   Time after variat. SCF:     35.0
   Time prior to 1st pass:     35.0

           Memory utilization after 1st SCF pass: 
           Heap Space remaining (MW):      131.01           131006392
          Stack Space remaining (MW):      131.06           131060060

   convergence    iter        energy       DeltaE   RMS-Dens  Diis-err    time
 ---------------- ----- ----------------- --------- --------- ---------  ------
 d= 0,ls=0.0,diis     1   -579.7378425683 -7.27D+02  2.02D-03  9.18D-03    36.9
 d= 0,ls=0.0,diis     2   -579.7395281223 -1.69D-03  5.75D-04  1.87D-03    39.7
 d= 0,ls=0.0,diis     3   -579.7395489481 -2.08D-05  3.72D-04  1.67D-03    42.0
 d= 0,ls=0.0,diis     4   -579.7397384381 -1.89D-04  1.08D-04  1.39D-04    44.7
 d= 0,ls=0.0,diis     5   -579.7397570139 -1.86D-05  1.60D-05  1.54D-06    47.1
 d= 0,ls=0.0,diis     6   -579.7397572079 -1.94D-07  3.72D-06  2.01D-08    49.4
(nogshift,skip_gshiftAOev,done_Fji)=( 1,F,F)


         Total DFT energy =     -579.739757207919
      One electron energy =    -1085.814125293720
           Coulomb energy =      405.785831631675
    Exchange-Corr. energy =      -46.487808331301
 Nuclear repulsion energy =      146.776344785427

       Scaling correction =        0.810131259536

 Numeric. integr. density =       40.000000528039

     Total iterative time =     14.5s



                  Occupations of the irreducible representations
                  ----------------------------------------------

                     irrep           alpha         beta
                     --------     --------     --------
                     a'               16.0         16.0
                     a"                4.0          4.0


 center of mass
 --------------
 x =  -0.00340904 y =   0.18608542 z =   0.00000000

 moments of inertia (a.u.)
 ------------------
         384.802285644794           6.413245679277           0.000000000000
           6.413245679277         194.465761294894           0.000000000000
           0.000000000000           0.000000000000         567.990492190724
 Line search: 
     step= 1.00 grad=-7.2D-03 hess= 2.7D-03 energy=   -579.739757 mode=downhill
 new step= 1.32                   predicted energy=   -579.740035
  no constraints, skipping    0.0000000000000000     
  no constraints, skipping    0.0000000000000000     
  no constraints, skipping    0.0000000000000000     
  no constraints, skipping    0.0000000000000000     
  no constraints, skipping    0.0000000000000000     
  no constraints, skipping    0.0000000000000000     
  no constraints, skipping    0.0000000000000000     
  no constraints, skipping    0.0000000000000000     

          --------
          Step   1
          --------


                         Geometry "geometry" -> "geometry"
                         ---------------------------------

 Output coordinates in angstroms (scale by  1.889725989 to convert to a.u.)

  No.       Tag          Charge          X              Y              Z
 ---- ---------------- ---------- -------------- -------------- --------------
    1 C                    6.0000    -1.14205992    -1.27906477     0.00000000
    2 C                    6.0000     0.13729484    -0.46705995     0.00000000
    3 C                    6.0000     1.37984936    -0.94738127     0.00000000
    4 Cl                  17.0000    -0.12135314     1.32797946     0.00000000
    5 H                    1.0000    -1.19508367    -1.91278254    -0.87843011
    6 H                    1.0000    -2.02799946    -0.65741648     0.00000000
    7 H                    1.0000    -1.19508367    -1.91278254     0.87843011
    8 H                    1.0000     1.54380510    -2.01416830     0.00000000
    9 H                    1.0000     2.24846020    -0.30731171     0.00000000

      Atomic Mass 
      ----------- 

      C                 12.000000
      Cl                34.968850
      H                  1.007825


 Effective nuclear repulsion energy (a.u.)     146.4749613694

            Nuclear Dipole moment (a.u.) 
            ----------------------------
        X                 Y               Z
 ---------------- ---------------- ----------------
    -0.8284542868    -0.7367034131     0.0000000000

      Symmetry information
      --------------------

 Group name             Cs        
 Group number              2
 Group order               2
 No. of unique centers     8

      Symmetry unique atoms

     1    2    3    4    5    6    8    9


                                 NWChem DFT Module
                                 -----------------


                               Molecule conformer 0




 Summary of "ao basis" -> "ao basis" (spherical)
 ------------------------------------------------------------------------------
       Tag                 Description            Shells   Functions and Types
 ---------------- ------------------------------  ------  ---------------------
 C                           6-311G                  7       13   4s3p
 Cl                          6-311G                 11       21   6s5p
 H                           6-311G                  3        3   3s


      Symmetry analysis of basis
      --------------------------

        a'         58
        a"         17

  Caching 1-el integrals 

            General Information
            -------------------
          SCF calculation type: DFT
          Wavefunction type:  closed shell.
          No. of atoms     :     9
          No. of electrons :    40
           Alpha electrons :    20
            Beta electrons :    20
          Charge           :     0
          Spin multiplicity:     1
          Use of symmetry is: on ; symmetry adaption is: on 
          Maximum number of iterations: ***
          This is a Direct SCF calculation.
          AO basis - number of functions:    75
                     number of shells:    47
          Convergence on energy requested:  1.00D-06
          Convergence on density requested:  1.00D-05
          Convergence on gradient requested:  5.00D-04

              XC Information
              --------------
                         B3LYP Method XC Potential
                     Hartree-Fock (Exact) Exchange  0.200          
                        Slater Exchange Functional  0.800 local    
                    Becke 1988 Exchange Functional  0.720 non-local
              Lee-Yang-Parr Correlation Functional  0.810          
                  VWN I RPA Correlation Functional  0.190 local    

             Grid Information
             ----------------
          Grid used for XC integration:  fine      
          Radial quadrature: Mura-Knowles        
          Angular quadrature: Lebedev. 
          Tag              B.-S. Rad. Rad. Pts. Rad. Cut. Ang. Pts.
          ---              ---------- --------- --------- ---------
          C                   0.70       70          11.0       590
          Cl                  1.00      123          11.0       770
          H                   0.35       60          12.0       590
          Grid pruning is: on 
          Number of quadrature shells:   573
          Spatial weights used:  Erf1

          Convergence Information
          -----------------------
          Convergence aids based upon iterative change in 
          total energy or number of iterations. 
          Levelshifting, if invoked, occurs when the 
          HOMO/LUMO gap drops below (HL_TOL):  1.00D-02
          DIIS, if invoked, will attempt to extrapolate 
          using up to (NFOCK): 10 stored Fock matrices.

                    Damping( 0%)  Levelshifting(0.5)       DIIS
                  --------------- ------------------- ---------------
          dE  on:    start            ASAP                start   
          dE off:    2 iters        *** iters           *** iters 


      Screening Tolerance Information
      -------------------------------
          Density screening/tol_rho:  1.00D-10
          AO Gaussian exp screening on grid/accAOfunc:  14
          CD Gaussian exp screening on grid/accCDfunc:  20
          XC Gaussian exp screening on grid/accXCfunc:  20
          Schwarz screening/accCoul:  1.00D-08

          Performing ZORA calculations
          ----------------------------


      Superposition of Atomic Density Guess
      -------------------------------------

 Sum of atomic energies:        -574.98156165

 Read atomic ZORA corrections from ./CC(=C)Cl_mol_0_conformer_0.zora_sf

 Forcing recalculation of ZORA corrections
       Generating atomic ZORA corrections
       ----------------------------------

 In dft_scf:: zora:Knucl= F

 Grid_pts file          = ./CC(=C)Cl_mol_0_conformer_0.gridpts.00
 Record size in doubles =  12289        No. of grid_pts per rec  =   3070
 Max. records in memory =      5        Max. recs in file   =     13517


 Wrote atomic ZORA corrections to ./CC(=C)Cl_mol_0_conformer_0.zora_sf


 Loading old vectors from job with title :

Molecule conformer 0


      Symmetry analysis of molecular orbitals - initial
      -------------------------------------------------

  Numbering of irreducible representations: 

     1 a'          2 a"      

  Orbital symmetries:

     1 a'          2 a'          3 a'          4 a'          5 a'      
     6 a'          7 a"          8 a'          9 a'         10 a'      
    11 a'         12 a'         13 a'         14 a'         15 a"      
    16 a'         17 a'         18 a"         19 a'         20 a"      
    21 a"         22 a'         23 a'         24 a'         25 a'      
    26 a"         27 a'         28 a'         29 a'         30 a"      

   Time after variat. SCF:     56.1
   Time prior to 1st pass:     56.1

           Memory utilization after 1st SCF pass: 
           Heap Space remaining (MW):      131.01           131006392
          Stack Space remaining (MW):      131.06           131060060

   convergence    iter        energy       DeltaE   RMS-Dens  Diis-err    time
 ---------------- ----- ----------------- --------- --------- ---------  ------
 d= 0,ls=0.0,diis     1   -579.7398791043 -7.26D+02  6.52D-04  9.07D-04    58.6
 d= 0,ls=0.0,diis     2   -579.7400476479 -1.69D-04  1.78D-04  1.78D-04    61.0
 d= 0,ls=0.0,diis     3   -579.7400497927 -2.14D-06  1.13D-04  1.58D-04    63.4
 d= 0,ls=0.0,diis     4   -579.7400676601 -1.79D-05  3.38D-05  1.33D-05    66.1
 d= 0,ls=0.0,diis     5   -579.7400694422 -1.78D-06  4.94D-06  1.56D-07    68.5
 d= 0,ls=0.0,diis     6   -579.7400694618 -1.96D-08  1.19D-06  1.96D-09    71.4
(nogshift,skip_gshiftAOev,done_Fji)=( 1,F,F)


         Total DFT energy =     -579.740069461832
      One electron energy =    -1085.222360550036
           Coulomb energy =      405.497386251860
    Exchange-Corr. energy =      -46.490056533009
 Nuclear repulsion energy =      146.474961369353

       Scaling correction =        0.810113812012

 Numeric. integr. density =       40.000001360197

     Total iterative time =     15.4s



                  Occupations of the irreducible representations
                  ----------------------------------------------

                     irrep           alpha         beta
                     --------     --------     --------
                     a'               16.0         16.0
                     a"                4.0          4.0


 center of mass
 --------------
 x =  -0.00928274 y =   0.18045328 z =   0.00000000

 moments of inertia (a.u.)
 ------------------
         384.050701566591           8.591310142955           0.000000000000
           8.591310142955         197.533406409121           0.000000000000
           0.000000000000           0.000000000000         570.475561949905

            General Information
            -------------------
          SCF calculation type: DFT
          Wavefunction type:  closed shell.
          No. of atoms     :     9
          No. of electrons :    40
           Alpha electrons :    20
            Beta electrons :    20
          Charge           :     0
          Spin multiplicity:     1
          Use of symmetry is: on ; symmetry adaption is: on 
          Maximum number of iterations: ***
          This is a Direct SCF calculation.
          AO basis - number of functions:    75
                     number of shells:    47
          Convergence on energy requested:  1.00D-06
          Convergence on density requested:  1.00D-05
          Convergence on gradient requested:  5.00D-04

              XC Information
              --------------
                         B3LYP Method XC Potential
                     Hartree-Fock (Exact) Exchange  0.200          
                        Slater Exchange Functional  0.800 local    
                    Becke 1988 Exchange Functional  0.720 non-local
              Lee-Yang-Parr Correlation Functional  0.810          
                  VWN I RPA Correlation Functional  0.190 local    

             Grid Information
             ----------------
          Grid used for XC integration:  fine      
          Radial quadrature: Mura-Knowles        
          Angular quadrature: Lebedev. 
          Tag              B.-S. Rad. Rad. Pts. Rad. Cut. Ang. Pts.
          ---              ---------- --------- --------- ---------
          C                   0.70       70          11.0       590
          Cl                  1.00      123          11.0       770
          H                   0.35       60          12.0       590
          Grid pruning is: on 
          Number of quadrature shells:   573
          Spatial weights used:  Erf1

          Convergence Information
          -----------------------
          Convergence aids based upon iterative change in 
          total energy or number of iterations. 
          Levelshifting, if invoked, occurs when the 
          HOMO/LUMO gap drops below (HL_TOL):  1.00D-02
          DIIS, if invoked, will attempt to extrapolate 
          using up to (NFOCK): 10 stored Fock matrices.

                    Damping( 0%)  Levelshifting(0.5)       DIIS
                  --------------- ------------------- ---------------
          dE  on:    start            ASAP                start   
          dE off:    2 iters        *** iters           *** iters 


      Screening Tolerance Information
      -------------------------------
          Density screening/tol_rho:  1.00D-10
          AO Gaussian exp screening on grid/accAOfunc:  14
          CD Gaussian exp screening on grid/accCDfunc:  20
          XC Gaussian exp screening on grid/accXCfunc:  20
          Schwarz screening/accCoul:  1.00D-08



                            NWChem DFT Gradient Module
                            --------------------------


                               Molecule conformer 0



  charge          =   0.00
  wavefunction    = closed shell

  Using symmetry


                         DFT ENERGY GRADIENTS

    atom               coordinates                        gradient
                 x          y          z           x          y          z
   1 C      -2.158180  -2.417082   0.000000   -0.004298  -0.004387   0.000000
   2 C       0.259450  -0.882615   0.000000   -0.001096   0.018103   0.000000
   3 C       2.607537  -1.790291   0.000000    0.005927  -0.006186   0.000000
   4 Cl     -0.229324   2.509517   0.000000    0.000707  -0.012024   0.000000
   5 H      -2.258381  -3.614635  -1.659992   -0.000973   0.002989   0.003715
   6 H      -3.832363  -1.242337   0.000000    0.000988  -0.003797   0.000000
   7 H      -2.258381  -3.614635   1.659992   -0.000973   0.002989  -0.003715
   8 H       2.917369  -3.806226   0.000000   -0.000052   0.002272   0.000000
   9 H       4.248974  -0.580735   0.000000   -0.000231   0.000042   0.000000

                 ----------------------------------------
                 |  Time  |  1-e(secs)   |  2-e(secs)   |
                 ----------------------------------------
                 |  CPU   |       0.00   |       0.10   |
                 ----------------------------------------
                 |  WALL  |       0.00   |       0.10   |
                 ----------------------------------------
  no constraints, skipping    0.0000000000000000     

  Step       Energy      Delta E   Gmax     Grms     Xrms     Xmax   Walltime
  ---- ---------------- -------- -------- -------- -------- -------- --------
@    1    -579.74006946 -4.8D-03  0.01200  0.00309  0.06461  0.15835     73.9
                                                                    



                                Z-matrix (autoz)
                                -------- 

 Units are Angstrom for bonds and degrees for angles

      Type          Name      I     J     K     L     M      Value     Gradient
      ----------- --------  ----- ----- ----- ----- ----- ---------- ----------
    1 Stretch                  1     2                       1.51529    0.00562
    2 Stretch                  1     5                       1.08446   -0.00471
    3 Stretch                  1     6                       1.08228   -0.00299
    4 Stretch                  1     7                       1.08446   -0.00471
    5 Stretch                  2     3                       1.33216    0.00666
    6 Stretch                  2     4                       1.81358   -0.01200
    7 Stretch                  3     8                       1.07931   -0.00225
    8 Stretch                  3     9                       1.07897   -0.00016
    9 Bend                     1     2     3               126.46227   -0.00045
   10 Bend                     1     2     4               114.20390   -0.00070
   11 Bend                     2     1     5               110.75832    0.00032
   12 Bend                     2     1     6               112.54009    0.00161
   13 Bend                     2     1     7               110.75832    0.00032
   14 Bend                     2     3     8               119.87197    0.00027
   15 Bend                     2     3     9               122.47943   -0.00023
   16 Bend                     3     2     4               119.33382    0.00115
   17 Bend                     5     1     6               107.19510   -0.00108
   18 Bend                     5     1     7               108.19531   -0.00023
   19 Bend                     6     1     7               107.19510   -0.00108
   20 Bend                     8     3     9               117.64860   -0.00004
   21 Torsion                  1     2     3     8           0.00000    0.00000
   22 Torsion                  1     2     3     9         180.00000   -0.00000
   23 Torsion                  3     2     1     5         -60.02591   -0.00007
   24 Torsion                  3     2     1     6         180.00000    0.00000
   25 Torsion                  3     2     1     7          60.02591    0.00007
   26 Torsion                  4     2     1     5         119.97409   -0.00007
   27 Torsion                  4     2     1     6           0.00000   -0.00000
   28 Torsion                  4     2     1     7        -119.97409    0.00007
   29 Torsion                  4     2     3     8         180.00000   -0.00000
   30 Torsion                  4     2     3     9           0.00000    0.00000

  no constraints, skipping    0.0000000000000000     
  no constraints, skipping    0.0000000000000000     
  no constraints, skipping    0.0000000000000000     
  no constraints, skipping    0.0000000000000000     
  no constraints, skipping    0.0000000000000000     
  no constraints, skipping    0.0000000000000000     
  no constraints, skipping    0.0000000000000000     
  no constraints, skipping    0.0000000000000000     

                                 NWChem DFT Module
                                 -----------------


                               Molecule conformer 0




 Summary of "ao basis" -> "ao basis" (spherical)
 ------------------------------------------------------------------------------
       Tag                 Description            Shells   Functions and Types
 ---------------- ------------------------------  ------  ---------------------
 C                           6-311G                  7       13   4s3p
 Cl                          6-311G                 11       21   6s5p
 H                           6-311G                  3        3   3s


      Symmetry analysis of basis
      --------------------------

        a'         58
        a"         17

  Caching 1-el integrals 

            General Information
            -------------------
          SCF calculation type: DFT
          Wavefunction type:  closed shell.
          No. of atoms     :     9
          No. of electrons :    40
           Alpha electrons :    20
            Beta electrons :    20
          Charge           :     0
          Spin multiplicity:     1
          Use of symmetry is: on ; symmetry adaption is: on 
          Maximum number of iterations: ***
          This is a Direct SCF calculation.
          AO basis - number of functions:    75
                     number of shells:    47
          Convergence on energy requested:  1.00D-06
          Convergence on density requested:  1.00D-05
          Convergence on gradient requested:  5.00D-04

              XC Information
              --------------
                         B3LYP Method XC Potential
                     Hartree-Fock (Exact) Exchange  0.200          
                        Slater Exchange Functional  0.800 local    
                    Becke 1988 Exchange Functional  0.720 non-local
              Lee-Yang-Parr Correlation Functional  0.810          
                  VWN I RPA Correlation Functional  0.190 local    

             Grid Information
             ----------------
          Grid used for XC integration:  fine      
          Radial quadrature: Mura-Knowles        
          Angular quadrature: Lebedev. 
          Tag              B.-S. Rad. Rad. Pts. Rad. Cut. Ang. Pts.
          ---              ---------- --------- --------- ---------
          C                   0.70       70          11.0       590
          Cl                  1.00      123          11.0       770
          H                   0.35       60          12.0       590
          Grid pruning is: on 
          Number of quadrature shells:   573
          Spatial weights used:  Erf1

          Convergence Information
          -----------------------
          Convergence aids based upon iterative change in 
          total energy or number of iterations. 
          Levelshifting, if invoked, occurs when the 
          HOMO/LUMO gap drops below (HL_TOL):  1.00D-02
          DIIS, if invoked, will attempt to extrapolate 
          using up to (NFOCK): 10 stored Fock matrices.

                    Damping( 0%)  Levelshifting(0.5)       DIIS
                  --------------- ------------------- ---------------
          dE  on:    start            ASAP                start   
          dE off:    2 iters        *** iters           *** iters 


      Screening Tolerance Information
      -------------------------------
          Density screening/tol_rho:  1.00D-10
          AO Gaussian exp screening on grid/accAOfunc:  14
          CD Gaussian exp screening on grid/accCDfunc:  20
          XC Gaussian exp screening on grid/accXCfunc:  20
          Schwarz screening/accCoul:  1.00D-08

          Performing ZORA calculations
          ----------------------------


      Superposition of Atomic Density Guess
      -------------------------------------

 Sum of atomic energies:        -574.98156165

 Read atomic ZORA corrections from ./CC(=C)Cl_mol_0_conformer_0.zora_sf

 Forcing recalculation of ZORA corrections
       Generating atomic ZORA corrections
       ----------------------------------

 In dft_scf:: zora:Knucl= F

 Grid_pts file          = ./CC(=C)Cl_mol_0_conformer_0.gridpts.00
 Record size in doubles =  12289        No. of grid_pts per rec  =   3070
 Max. records in memory =      5        Max. recs in file   =     13517


 Wrote atomic ZORA corrections to ./CC(=C)Cl_mol_0_conformer_0.zora_sf


 Loading old vectors from job with title :

Molecule conformer 0


      Symmetry analysis of molecular orbitals - initial
      -------------------------------------------------

  Numbering of irreducible representations: 

     1 a'          2 a"      

  Orbital symmetries:

     1 a'          2 a'          3 a'          4 a'          5 a'      
     6 a'          7 a"          8 a'          9 a'         10 a'      
    11 a'         12 a'         13 a'         14 a'         15 a"      
    16 a'         17 a'         18 a"         19 a'         20 a"      
    21 a"         22 a'         23 a'         24 a'         25 a'      
    26 a"         27 a'         28 a'         29 a'         30 a"      

   Time after variat. SCF:     80.9
   Time prior to 1st pass:     80.9

           Memory utilization after 1st SCF pass: 
           Heap Space remaining (MW):      131.01           131006392
          Stack Space remaining (MW):      131.06           131060060

   convergence    iter        energy       DeltaE   RMS-Dens  Diis-err    time
 ---------------- ----- ----------------- --------- --------- ---------  ------
 d= 0,ls=0.0,diis     1   -579.7404722073 -7.26D+02  6.18D-04  1.09D-03    83.4
 d= 0,ls=0.0,diis     2   -579.7406762426 -2.04D-04  1.88D-04  6.15D-05    85.6
 d= 0,ls=0.0,diis     3   -579.7406660791  1.02D-05  1.06D-04  1.43D-04    87.7
 d= 0,ls=0.0,diis     4   -579.7406843104 -1.82D-05  1.97D-05  3.08D-06    90.1
 d= 0,ls=0.0,diis     5   -579.7406846820 -3.72D-07  4.17D-06  3.64D-07    93.0
(nogshift,skip_gshiftAOev,done_Fji)=( 1,F,F)


         Total DFT energy =     -579.740684682017
      One electron energy =    -1084.399521550025
           Coulomb energy =      405.091405294700
    Exchange-Corr. energy =      -46.484152788520
 Nuclear repulsion energy =      146.051584361828

       Scaling correction =        0.810095151050

 Numeric. integr. density =       40.000001360754

     Total iterative time =     12.2s



                  Occupations of the irreducible representations
                  ----------------------------------------------

                     irrep           alpha         beta
                     --------     --------     --------
                     a'               16.0         16.0
                     a"                4.0          4.0


 center of mass
 --------------
 x =  -0.01192927 y =   0.18563273 z =   0.00000000

 moments of inertia (a.u.)
 ------------------
         388.458582943774           8.895559218137           0.000000000000
           8.895559218137         197.012267559970           0.000000000000
           0.000000000000           0.000000000000         574.259950823824
 Line search: 
     step= 1.00 grad=-9.1D-04 hess= 2.9D-04 energy=   -579.740685 mode=downhill
 new step= 1.55                   predicted energy=   -579.740774
  no constraints, skipping    0.0000000000000000     
  no constraints, skipping    0.0000000000000000     
  no constraints, skipping    0.0000000000000000     
  no constraints, skipping    0.0000000000000000     
  no constraints, skipping    0.0000000000000000     
  no constraints, skipping    0.0000000000000000     
  no constraints, skipping    0.0000000000000000     
  no constraints, skipping    0.0000000000000000     

          --------
          Step   2
          --------


                         Geometry "geometry" -> "geometry"
                         ---------------------------------

 Output coordinates in angstroms (scale by  1.889725989 to convert to a.u.)

  No.       Tag          Charge          X              Y              Z
 ---- ---------------- ---------- -------------- -------------- --------------
    1 C                    6.0000    -1.14126641    -1.28343309     0.00000000
    2 C                    6.0000     0.13629409    -0.48663244     0.00000000
    3 C                    6.0000     1.37483988    -0.94627977     0.00000000
    4 Cl                  17.0000    -0.12454665     1.34492493     0.00000000
    5 H                    1.0000    -1.19568083    -1.92169604    -0.88469651
    6 H                    1.0000    -2.01293581    -0.63656341     0.00000000
    7 H                    1.0000    -1.19568083    -1.92169604     0.88469651
    8 H                    1.0000     1.54694387    -2.01621192     0.00000000
    9 H                    1.0000     2.23986235    -0.30240032     0.00000000

      Atomic Mass 
      ----------- 

      C                 12.000000
      Cl                34.968850
      H                  1.007825


 Effective nuclear repulsion energy (a.u.)     145.8236942117

            Nuclear Dipole moment (a.u.) 
            ----------------------------
        X                 Y               Z
 ---------------- ---------------- ----------------
    -0.9743029889    -0.4401469856     0.0000000000

      Symmetry information
      --------------------

 Group name             Cs        
 Group number              2
 Group order               2
 No. of unique centers     8

      Symmetry unique atoms

     1    2    3    4    5    6    8    9


                                 NWChem DFT Module
                                 -----------------


                               Molecule conformer 0




 Summary of "ao basis" -> "ao basis" (spherical)
 ------------------------------------------------------------------------------
       Tag                 Description            Shells   Functions and Types
 ---------------- ------------------------------  ------  ---------------------
 C                           6-311G                  7       13   4s3p
 Cl                          6-311G                 11       21   6s5p
 H                           6-311G                  3        3   3s


      Symmetry analysis of basis
      --------------------------

        a'         58
        a"         17

  Caching 1-el integrals 

            General Information
            -------------------
          SCF calculation type: DFT
          Wavefunction type:  closed shell.
          No. of atoms     :     9
          No. of electrons :    40
           Alpha electrons :    20
            Beta electrons :    20
          Charge           :     0
          Spin multiplicity:     1
          Use of symmetry is: on ; symmetry adaption is: on 
          Maximum number of iterations: ***
          This is a Direct SCF calculation.
          AO basis - number of functions:    75
                     number of shells:    47
          Convergence on energy requested:  1.00D-06
          Convergence on density requested:  1.00D-05
          Convergence on gradient requested:  5.00D-04

              XC Information
              --------------
                         B3LYP Method XC Potential
                     Hartree-Fock (Exact) Exchange  0.200          
                        Slater Exchange Functional  0.800 local    
                    Becke 1988 Exchange Functional  0.720 non-local
              Lee-Yang-Parr Correlation Functional  0.810          
                  VWN I RPA Correlation Functional  0.190 local    

             Grid Information
             ----------------
          Grid used for XC integration:  fine      
          Radial quadrature: Mura-Knowles        
          Angular quadrature: Lebedev. 
          Tag              B.-S. Rad. Rad. Pts. Rad. Cut. Ang. Pts.
          ---              ---------- --------- --------- ---------
          C                   0.70       70          11.0       590
          Cl                  1.00      123          11.0       770
          H                   0.35       60          12.0       590
          Grid pruning is: on 
          Number of quadrature shells:   573
          Spatial weights used:  Erf1

          Convergence Information
          -----------------------
          Convergence aids based upon iterative change in 
          total energy or number of iterations. 
          Levelshifting, if invoked, occurs when the 
          HOMO/LUMO gap drops below (HL_TOL):  1.00D-02
          DIIS, if invoked, will attempt to extrapolate 
          using up to (NFOCK): 10 stored Fock matrices.

                    Damping( 0%)  Levelshifting(0.5)       DIIS
                  --------------- ------------------- ---------------
          dE  on:    start            ASAP                start   
          dE off:    2 iters        *** iters           *** iters 


      Screening Tolerance Information
      -------------------------------
          Density screening/tol_rho:  1.00D-10
          AO Gaussian exp screening on grid/accAOfunc:  14
          CD Gaussian exp screening on grid/accCDfunc:  20
          XC Gaussian exp screening on grid/accXCfunc:  20
          Schwarz screening/accCoul:  1.00D-08

          Performing ZORA calculations
          ----------------------------


      Superposition of Atomic Density Guess
      -------------------------------------

 Sum of atomic energies:        -574.98156165

 Read atomic ZORA corrections from ./CC(=C)Cl_mol_0_conformer_0.zora_sf

 Forcing recalculation of ZORA corrections
       Generating atomic ZORA corrections
       ----------------------------------

 In dft_scf:: zora:Knucl= F

 Grid_pts file          = ./CC(=C)Cl_mol_0_conformer_0.gridpts.00
 Record size in doubles =  12289        No. of grid_pts per rec  =   3070
 Max. records in memory =      5        Max. recs in file   =     13517


 Wrote atomic ZORA corrections to ./CC(=C)Cl_mol_0_conformer_0.zora_sf


 Loading old vectors from job with title :

Molecule conformer 0


      Symmetry analysis of molecular orbitals - initial
      -------------------------------------------------

  Numbering of irreducible representations: 

     1 a'          2 a"      

  Orbital symmetries:

     1 a'          2 a'          3 a'          4 a'          5 a'      
     6 a'          7 a"          8 a'          9 a'         10 a'      
    11 a'         12 a'         13 a'         14 a'         15 a"      
    16 a'         17 a'         18 a"         19 a'         20 a"      
    21 a"         22 a'         23 a'         24 a'         25 a'      
    26 a"         27 a'         28 a'         29 a'         30 a"      

   Time after variat. SCF:     99.2
   Time prior to 1st pass:     99.2

           Memory utilization after 1st SCF pass: 
           Heap Space remaining (MW):      131.01           131006392
          Stack Space remaining (MW):      131.06           131060060

   convergence    iter        energy       DeltaE   RMS-Dens  Diis-err    time
 ---------------- ----- ----------------- --------- --------- ---------  ------
 d= 0,ls=0.0,diis     1   -579.7407216954 -7.26D+02  3.36D-04  3.23D-04   101.8
 d= 0,ls=0.0,diis     2   -579.7407824774 -6.08D-05  9.88D-05  1.71D-05   104.4
 d= 0,ls=0.0,diis     3   -579.7407799403  2.54D-06  5.48D-05  3.78D-05   107.4
 d= 0,ls=0.0,diis     4   -579.7407847107 -4.77D-06  1.12D-05  1.01D-06   109.6
 d= 0,ls=0.0,diis     5   -579.7407848326 -1.22D-07  2.43D-06  1.10D-07   112.3
(nogshift,skip_gshiftAOev,done_Fji)=( 1,F,F)


         Total DFT energy =     -579.740784832624
      One electron energy =    -1083.955860561156
           Coulomb energy =      404.872486595145
    Exchange-Corr. energy =      -46.481105078307
 Nuclear repulsion energy =      145.823694211694

       Scaling correction =        0.810084788181

 Numeric. integr. density =       40.000001262140

     Total iterative time =     13.2s



                  Occupations of the irreducible representations
                  ----------------------------------------------

                     irrep           alpha         beta
                     --------     --------     --------
                     a'               16.0         16.0
                     a"                4.0          4.0


 center of mass
 --------------
 x =  -0.01340485 y =   0.18851937 z =   0.00000000

 moments of inertia (a.u.)
 ------------------
         390.918068772444           9.062367479532           0.000000000000
           9.062367479532         196.710392895621           0.000000000000
           0.000000000000           0.000000000000         576.360861632238

            General Information
            -------------------
          SCF calculation type: DFT
          Wavefunction type:  closed shell.
          No. of atoms     :     9
          No. of electrons :    40
           Alpha electrons :    20
            Beta electrons :    20
          Charge           :     0
          Spin multiplicity:     1
          Use of symmetry is: on ; symmetry adaption is: on 
          Maximum number of iterations: ***
          This is a Direct SCF calculation.
          AO basis - number of functions:    75
                     number of shells:    47
          Convergence on energy requested:  1.00D-06
          Convergence on density requested:  1.00D-05
          Convergence on gradient requested:  5.00D-04

              XC Information
              --------------
                         B3LYP Method XC Potential
                     Hartree-Fock (Exact) Exchange  0.200          
                        Slater Exchange Functional  0.800 local    
                    Becke 1988 Exchange Functional  0.720 non-local
              Lee-Yang-Parr Correlation Functional  0.810          
                  VWN I RPA Correlation Functional  0.190 local    

             Grid Information
             ----------------
          Grid used for XC integration:  fine      
          Radial quadrature: Mura-Knowles        
          Angular quadrature: Lebedev. 
          Tag              B.-S. Rad. Rad. Pts. Rad. Cut. Ang. Pts.
          ---              ---------- --------- --------- ---------
          C                   0.70       70          11.0       590
          Cl                  1.00      123          11.0       770
          H                   0.35       60          12.0       590
          Grid pruning is: on 
          Number of quadrature shells:   573
          Spatial weights used:  Erf1

          Convergence Information
          -----------------------
          Convergence aids based upon iterative change in 
          total energy or number of iterations. 
          Levelshifting, if invoked, occurs when the 
          HOMO/LUMO gap drops below (HL_TOL):  1.00D-02
          DIIS, if invoked, will attempt to extrapolate 
          using up to (NFOCK): 10 stored Fock matrices.

                    Damping( 0%)  Levelshifting(0.5)       DIIS
                  --------------- ------------------- ---------------
          dE  on:    start            ASAP                start   
          dE off:    2 iters        *** iters           *** iters 


      Screening Tolerance Information
      -------------------------------
          Density screening/tol_rho:  1.00D-10
          AO Gaussian exp screening on grid/accAOfunc:  14
          CD Gaussian exp screening on grid/accCDfunc:  20
          XC Gaussian exp screening on grid/accXCfunc:  20
          Schwarz screening/accCoul:  1.00D-08



                            NWChem DFT Gradient Module
                            --------------------------


                               Molecule conformer 0



  charge          =   0.00
  wavefunction    = closed shell

  Using symmetry


                         DFT ENERGY GRADIENTS

    atom               coordinates                        gradient
                 x          y          z           x          y          z
   1 C      -2.156681  -2.425337   0.000000   -0.000927  -0.000356   0.000000
   2 C       0.257558  -0.919602   0.000000    0.005518   0.001794   0.000000
   3 C       2.598071  -1.788209   0.000000   -0.004370   0.001194   0.000000
   4 Cl     -0.235359   2.541540   0.000000   -0.000341  -0.001919   0.000000
   5 H      -2.259509  -3.631479  -1.671834   -0.000012  -0.000184  -0.000376
   6 H      -3.803897  -1.202930   0.000000    0.000555   0.000036   0.000000
   7 H      -2.259509  -3.631479   1.671834   -0.000012  -0.000184   0.000376
   8 H       2.923300  -3.810088   0.000000   -0.000128  -0.000243   0.000000
   9 H       4.232726  -0.571454   0.000000   -0.000282  -0.000138   0.000000

                 ----------------------------------------
                 |  Time  |  1-e(secs)   |  2-e(secs)   |
                 ----------------------------------------
                 |  CPU   |       0.00   |       0.10   |
                 ----------------------------------------
                 |  WALL  |       0.00   |       0.10   |
                 ----------------------------------------
  no constraints, skipping    0.0000000000000000     

  Step       Energy      Delta E   Gmax     Grms     Xrms     Xmax   Walltime
  ---- ---------------- -------- -------- -------- -------- -------- --------
@    2    -579.74078483 -7.2D-04  0.00476  0.00097  0.01518  0.03935    114.5
[...]
dia1(k,t,iat1,ispin)=(  2,  3,  8,  1)=(     0.00062895,     0.00062895) ppm
dia1(k,t,iat1,ispin)=(  3,  1,  8,  1)=(     0.00078722,     0.00078722) ppm
dia1(k,t,iat1,ispin)=(  3,  2,  8,  1)=(    -0.00024712,    -0.00024712) ppm
dia1(k,t,iat1,ispin)=(  3,  3,  8,  1)=(    16.14766798,    16.14766798) ppm
(dia2,par1)(k,t,iat1,spin)=(  1,  1,  8,  1)=(     5.80656497,     5.80656497,     0.37754377,     0.37754377) ppm
(dia2,par1)(k,t,iat1,spin)=(  2,  1,  8,  1)=(     0.81472460,     0.81472460,    -0.42635452,    -0.42635452) ppm
(dia2,par1)(k,t,iat1,spin)=(  3,  1,  8,  1)=(    -0.00074796,    -0.00074796,    -0.00135648,    -0.00135648) ppm
(dia2,par1)(k,t,iat1,spin)=(  1,  2,  8,  1)=(     1.37492993,     1.37492993,     1.31194063,     1.31194063) ppm
(dia2,par1)(k,t,iat1,spin)=(  2,  2,  8,  1)=(     0.11558387,     0.11558387,    -0.93792790,    -0.93792790) ppm
(dia2,par1)(k,t,iat1,spin)=(  3,  2,  8,  1)=(    -0.00287594,    -0.00287594,     0.00044605,     0.00044605) ppm
(dia2,par1)(k,t,iat1,spin)=(  1,  3,  8,  1)=(    -0.00048124,    -0.00048124,     0.00007416,     0.00007416) ppm
(dia2,par1)(k,t,iat1,spin)=(  2,  3,  8,  1)=(     0.00080746,     0.00080746,     0.00021842,     0.00021842) ppm
(dia2,par1)(k,t,iat1,spin)=(  3,  3,  8,  1)=(     5.80434940,     5.80434940,     1.19910964,     1.19910964) ppm
dia1(k,t,iat1,ispin)=(  1,  1,  9,  1)=(    37.08924944,    37.08924944) ppm
dia1(k,t,iat1,ispin)=(  1,  2,  9,  1)=(     8.34211760,     8.34211760) ppm
dia1(k,t,iat1,ispin)=(  1,  3,  9,  1)=(    -0.00126696,    -0.00126696) ppm
dia1(k,t,iat1,ispin)=(  2,  1,  9,  1)=(     7.64593700,     7.64593700) ppm
dia1(k,t,iat1,ispin)=(  2,  2,  9,  1)=(    24.97268951,    24.97268951) ppm
dia1(k,t,iat1,ispin)=(  2,  3,  9,  1)=(     0.00114392,     0.00114392) ppm
dia1(k,t,iat1,ispin)=(  3,  1,  9,  1)=(     0.00091018,     0.00091018) ppm
dia1(k,t,iat1,ispin)=(  3,  2,  9,  1)=(    -0.00005705,    -0.00005705) ppm
dia1(k,t,iat1,ispin)=(  3,  3,  9,  1)=(    15.12767342,    15.12767342) ppm
(dia2,par1)(k,t,iat1,spin)=(  1,  1,  9,  1)=(     1.52237405,     1.52237405,    -0.17272867,    -0.17272867) ppm
(dia2,par1)(k,t,iat1,spin)=(  2,  1,  9,  1)=(    -3.23912523,    -3.23912523,     0.10799964,     0.10799964) ppm
(dia2,par1)(k,t,iat1,spin)=(  3,  1,  9,  1)=(    -0.00045035,    -0.00045035,    -0.00070441,    -0.00070441) ppm
(dia2,par1)(k,t,iat1,spin)=(  1,  2,  9,  1)=(    -3.30893225,    -3.30893225,     0.61494198,     0.61494198) ppm
(dia2,par1)(k,t,iat1,spin)=(  2,  2,  9,  1)=(     3.95774296,     3.95774296,    -0.44220921,    -0.44220921) ppm
(dia2,par1)(k,t,iat1,spin)=(  3,  2,  9,  1)=(    -0.00137910,    -0.00137910,    -0.00177577,    -0.00177577) ppm
(dia2,par1)(k,t,iat1,spin)=(  1,  3,  9,  1)=(    -0.00398706,    -0.00398706,    -0.00003479,    -0.00003479) ppm
(dia2,par1)(k,t,iat1,spin)=(  2,  3,  9,  1)=(    -0.00044763,    -0.00044763,     0.00001306,     0.00001306) ppm
(dia2,par1)(k,t,iat1,spin)=(  3,  3,  9,  1)=(     6.02631107,     6.02631107,    -0.73627463,    -0.73627463) ppm

 Wrote ZORA NMR data to ./CC(=C)Cl_mol_0_conformer_0.zora_nmrcs

(nogshift,skip_gshiftAOev,done_Fji)=( 1,F,T)


         Total DFT energy =     -579.746117006194
      One electron energy =    -1083.869155005566
           Coulomb energy =      404.775494356500
    Exchange-Corr. energy =      -46.478633172112
 Nuclear repulsion energy =      145.575775581405

             COSMO energy =        0.250401233580

       Scaling correction =        0.810205780630

 Numeric. integr. density =       40.000001398546

     Total iterative time =     57.9s


                                   COSMO solvation results
                                   -----------------------

                 gas phase energy =      -579.740921618178
                 sol phase energy =      -579.746117006194
 (electrostatic) solvation energy =         0.005195388016 (    3.26 kcal/mol)

 center of mass
 --------------
 x =  -0.00890170 y =   0.18915649 z =   0.00000000

 moments of inertia (a.u.)
 ------------------
         392.291654909166           8.078337227980           0.000000000000
           8.078337227980         197.406648793008           0.000000000000
           0.000000000000           0.000000000000         578.455231383663

            Scalar ZORA NMR Shielding
            -------------------------


          -----------------------------------------
          Chemical Shielding Tensors (GIAO, in ppm)
          -----------------------------------------


 Read ZORA NMR data from ./CC(=C)Cl_mol_0_conformer_0.zora_nmrcs

    0 giaofock schwarz done =      92.35%
    0 giaofock schwarz done =      82.32%
                                NWChem CPHF Module
                                ------------------



 solvent parameters
 solvname_short: cdcl3   
 solvname_long:  unknown                            
 dielec:       78.4000
 dielecinf:     1.7769

          ---------------
          -cosmo- solvent
          ---------------
 Cosmo: York-Karplus, doi: 10.1021/jp992097l
 dielectric constant -eps-     =  78.40
 screen = (eps-1)/(eps    )    =   0.98724
 surface charge correction     = lagrangian
 -lineq- algorithm             =   0
 -bem- low  level              =   2
 -bem- from -octahedral-
 gaussian surface charge width =   0.98000
 degree of switching           =   1.00000
 switching function tolerance  =   0.00010
 atomic radii = 
 --------------
    1  6.000  2.000
    2  6.000  2.000
    3  6.000  2.000
    4 17.000  2.050
    5  1.000  1.300
    6  1.000  1.300
    7  1.000  1.300
    8  1.000  1.300
    9  1.000  1.300

 solvent accessible surface
 --------------------------

 ---------- ATOMIC COORDINATES (A.U.) ------------ VDWR(ANG.) --
     1   -2.16246269   -2.42580214    0.00000000     2.000
     2    0.25238233   -0.93108538    0.00000000     2.000
     3    2.60422683   -1.79002150    0.00000000     2.000
     4   -0.22372635    2.54741945    0.00000000     2.050
     5   -2.26833187   -3.63243801   -1.67001335     1.300
     6   -3.81085119   -1.20303888    0.00000000     1.300
     7   -2.26833187   -3.63243801    1.67001335     1.300
     8    2.94244873   -3.80930584    0.00000000     1.300
     9    4.23134609   -0.56232854    0.00000000     1.300
 number of segments per atom =         32
 number of   points per atom =         32
 atom (   nspa,  nppa )
 ----------------------
    1 (     18,     0 )       0
    2 (     10,     0 )       0
    3 (     20,     0 )       0
    4 (     26,     0 )       0
    5 (     15,     0 )       0
    6 (     12,     0 )       0
    7 (     15,     0 )       0
    8 (     14,     0 )       0
    9 (     14,     0 )       0
 number of -cosmo- surface points =      144
 molecular surface =    115.066 angstrom**2
 molecular volume  =     70.269 angstrom**3
 G(cav/disp)       =      1.435 kcal/mol
 ...... end of -cosmo- initialization ......


  scftype          =     RHF 
  nclosed          =       20
  nopen            =        0
  variables        =     1100
  # of vectors     =        3
  tolerance        = 0.10D-03
  level shift      = 0.00D+00
  max iterations   =       50
  max subspace     =       30

 SCF residual:    1.6678879325464021E-005


Iterative solution of linear equations
  No. of variables     1100
  No. of equations        3
  Maximum subspace       30
        Iterations       50
       Convergence  1.0D-04
        Start time   1044.5


   iter   nsub   residual    time
   ----  ------  --------  ---------
     1      3    4.90D-01    1047.6
     2      6    2.40D-02    1050.7
     3      9    1.79D-03    1053.7
     4     12    5.59D-05    1056.8

 Wrote CPHF data to ./CC(=C)Cl_mol_0_conformer_0.shieldcphf

 Calc. par tensor-> zora
      Atom:    1  H 
        Diamagnetic
     26.4480      3.5955      2.1568
      3.5955     30.7560      7.7166
      2.1568      7.7166     31.0521

        Paramagnetic
      3.1565     -1.2147     -0.9881
     -1.2147      0.2199     -3.6848
     -0.9881     -3.6848     -1.1959

        Total Shielding Tensor
     29.6045      2.3807      1.1687
      2.3807     30.9760      4.0318
      1.1687      4.0318     29.8562

           isotropic =      30.1456
          anisotropy =       8.1709

          Principal Components and Axis System
                 1           2           3
               35.5928     28.6741     26.1697

      1         0.3961      0.8838      0.2489
      2         0.7113     -0.1239     -0.6919
      3         0.5806     -0.4511      0.6778



      Atom:    2  H 
        Diamagnetic
     36.8413     -2.5887      0.0023
     -2.5887     29.2515      0.0010
      0.0023      0.0010     21.7188

        Paramagnetic
     -1.3056      2.1249     -0.0021
      2.1249      2.1647     -0.0023
     -0.0021     -0.0023      4.6928

        Total Shielding Tensor
     35.5357     -0.4639      0.0002
     -0.4639     31.4162     -0.0013
      0.0002     -0.0013     26.4116

           isotropic =      31.1212
          anisotropy =       6.6992

          Principal Components and Axis System
                 1           2           3
               35.5873     31.3646     26.4116

      1         0.9939      0.1105     -0.0000
      2        -0.1105      0.9939      0.0003
      3         0.0000     -0.0003      1.0000



      Atom:    3  H 
        Diamagnetic
     26.4469      3.5952     -2.1545
      3.5952     30.7544     -7.7151
     -2.1545     -7.7151     31.0507

        Paramagnetic
      3.1534     -1.2155      0.9867
     -1.2155      0.2194      3.6827
      0.9867      3.6827     -1.1951

        Total Shielding Tensor
     29.6003      2.3797     -1.1678
      2.3797     30.9738     -4.0323
     -1.1678     -4.0323     29.8555

           isotropic =      30.1432
          anisotropy =       8.1705

          Principal Components and Axis System
                 1           2           3
               35.5903     28.6717     26.1677

      1         0.3958      0.8839     -0.2491
      2         0.7113     -0.1236      0.6919
      3        -0.5808      0.4511      0.6777



      Atom:    4  H 
        Diamagnetic
     28.2526     -5.2988     -0.0006
     -5.2988     39.8957     -0.0008
     -0.0006     -0.0008     21.9520

        Paramagnetic
      1.3614      2.6966      0.0003
      2.6966    -14.2969      0.0024
      0.0003      0.0024      3.8975

        Total Shielding Tensor
     29.6140     -2.6021     -0.0002
     -2.6021     25.5987      0.0016
     -0.0002      0.0016     25.8495

           isotropic =      27.0208
          anisotropy =       5.8084

          Principal Components and Axis System
                 1           2           3
               30.8930     25.8495     24.3198

      1         0.8975      0.0005      0.4411
      2        -0.4411      0.0007      0.8975
      3        -0.0002      1.0000     -0.0009



      Atom:    5  H 
        Diamagnetic
     38.6116      4.7200     -0.0024
      4.7200     28.9304     -0.0004
     -0.0024     -0.0004     21.1540

        Paramagnetic
     -7.4547     -6.9263      0.0023
     -6.9263     -4.2857      0.0009
      0.0023      0.0009      4.6487

        Total Shielding Tensor
     31.1569     -2.2063     -0.0001
     -2.2063     24.6447      0.0005
     -0.0001      0.0005     25.8026

           isotropic =      27.2014
          anisotropy =       6.9489

          Principal Components and Axis System
                 1           2           3
               31.8340     25.8026     23.9676

      1         0.9560      0.0001      0.2934
      2        -0.2934      0.0002      0.9560
      3        -0.0000      1.0000     -0.0003




 Task  times  cpu:       94.2s     wall:       85.1s


                                NWChem Input Module
                                -------------------


 Summary of allocated global arrays
-----------------------------------
  array 0 => double precision sf 1(75,75),  handle: -987 
  array 1 => double precision sf 1(75,75),  handle: -986 
  array 2 => double precision sf 1(75,75),  handle: -985 
  array 3 => double precision sf 1(75,75),  handle: -984 
  array 4 => double precision sf 1(75,75),  handle: -983 
  array 5 => double precision sf 1(75,75),  handle: -982 
  array 6 => double precision sf 1(75,75),  handle: -981 
  array 7 => double precision sf 1(75,75),  handle: -980 
  array 8 => double precision sf 1(75,75),  handle: -979 
  array 9 => double precision sf 1(75,75),  handle: -978 
  array 10 => double precision sf 1(75,75),  handle: -977 
  array 11 => double precision sf 1(75,75),  handle: -976 
  array 12 => double precision sf 1(75,75),  handle: -975 
  array 13 => double precision sf 1(75,75),  handle: -974 
  array 14 => double precision sf 1(75,75),  handle: -973 
  array 15 => double precision sf 1(75,75),  handle: -972 
  array 16 => double precision sf 1(75,75),  handle: -971 
  array 17 => double precision sf 1(75,75),  handle: -970 
  array 18 => double precision sf 1(75,75),  handle: -969 
  array 19 => double precision sf 1(75,75),  handle: -968 
  array 20 => double precision sf 1(75,75),  handle: -967 
  array 21 => double precision sf 1(75,75),  handle: -966 
  array 22 => double precision sf 1(75,75),  handle: -965 
  array 23 => double precision sf 1(75,75),  handle: -964 
  array 24 => double precision sf 1(75,75),  handle: -963 
  array 25 => double precision sf 1(75,75),  handle: -962 
  array 26 => double precision sf 1(75,75),  handle: -961 
  array 27 => double precision sf 1(75,75),  handle: -960 
  array 28 => double precision sf 1(75,75),  handle: -959 
  array 29 => double precision sf 1(75,75),  handle: -958 
  array 30 => double precision sf 1(75,75),  handle: -957 
  array 31 => double precision sf 1(75,75),  handle: -956 
  array 32 => double precision sf 1(75,75),  handle: -955 
  array 33 => double precision sf 1(75,75),  handle: -954 
  array 34 => double precision sf 1(75,75),  handle: -953 
  array 35 => double precision sf 1(75,75),  handle: -952 
  array 36 => double precision sf 1(75,75),  handle: -951 
  array 37 => double precision sf 1(75,75),  handle: -950 
  array 38 => double precision sf 1(75,75),  handle: -949 
  array 39 => double precision sf 1(75,75),  handle: -948 
  array 40 => double precision sf 1(75,75),  handle: -947 
  array 41 => double precision sf 1(75,75),  handle: -946 
  array 42 => double precision sf 1(75,75),  handle: -945 
  array 43 => double precision sf 1(75,75),  handle: -944 
  array 44 => double precision sf 1(75,75),  handle: -943 
  array 45 => double precision sf 1(75,75),  handle: -942 
  array 46 => double precision sf 1(75,75),  handle: -941 
  array 47 => double precision sf 1(75,75),  handle: -940 
  array 48 => double precision sf 1(75,75),  handle: -939 
  array 49 => double precision sf 1(75,75),  handle: -938 
  array 50 => double precision sf 1(75,75),  handle: -937 
  array 51 => double precision sf 1(75,75),  handle: -936 
  array 52 => double precision sf 1(75,75),  handle: -935 
  array 53 => double precision sf 1(75,75),  handle: -934 
  array 54 => double precision sf 1(75,75),  handle: -933 
  array 55 => double precision sf 1(75,75),  handle: -932 
  array 56 => double precision sf 1(75,75),  handle: -931 



                         GA Statistics for process    0
                         ------------------------------

       create   destroy   get      put      acc     scatter   gather  read&inc
calls: 8660     8298     3.06e+05 5.34e+04 7.44e+04   60        0     1.04e+04 
number of processes/call 0.00e+00 0.00e+00 0.00e+00 0.00e+00 0.00e+00
bytes total:             4.04e+08 5.82e+07 3.38e+08 4.48e+02 0.00e+00 8.29e+04
bytes remote:            3.58e+08 4.99e+07 3.10e+08 -2.24e+02 0.00e+00 0.00e+00
Max memory consumed for GA by this process: 660432 bytes

MA_summarize_allocated_blocks: starting scan ...
MA_summarize_allocated_blocks: scan completed: 0 heap blocks, 0 stack blocks
MA usage statistics:

	allocation statistics:
					      heap	     stack
					      ----	     -----
	current number of blocks	         0	         0
	maximum number of blocks	        66	        59
	current total bytes		         0	         0
	maximum total bytes		   2300760	  24872392
	maximum total K-bytes		      2301	     24873
	maximum total M-bytes		         3	        25


                                     CITATION
                                     --------
                Please cite the following reference when publishing
                           results obtained with NWChem:

          E. Apr, E. J. Bylaska, W. A. de Jong, N. Govind, K. Kowalski,
       T. P. Straatsma, M. Valiev, H. J. J. van Dam, Y. Alexeev, J. Anchell,
       V. Anisimov, F. W. Aquino, R. Atta-Fynn, J. Autschbach, N. P. Bauman,
     J. C. Becca, D. E. Bernholdt, K. Bhaskaran-Nair, S. Bogatko, P. Borowski,
        J. Boschen, J. Brabec, A. Bruner, E. Caut, Y. Chen, G. N. Chuev,
      C. J. Cramer, J. Daily, M. J. O. Deegan, T. H. Dunning Jr., M. Dupuis,
   K. G. Dyall, G. I. Fann, S. A. Fischer, A. Fonari, H. Frchtl, L. Gagliardi,
      J. Garza, N. Gawande, S. Ghosh, K. Glaesemann, A. W. Gtz, J. Hammond,
       V. Helms, E. D. Hermes, K. Hirao, S. Hirata, M. Jacquelin, L. Jensen,
   B. G. Johnson, H. Jnsson, R. A. Kendall, M. Klemm, R. Kobayashi, V. Konkov,
      S. Krishnamoorthy, M. Krishnan, Z. Lin, R. D. Lins, R. J. Littlefield,
      A. J. Logsdail, K. Lopata, W. Ma, A. V. Marenich, J. Martin del Campo,
   D. Mejia-Rodriguez, J. E. Moore, J. M. Mullin, T. Nakajima, D. R. Nascimento,
    J. A. Nichols, P. J. Nichols, J. Nieplocha, A. Otero-de-la-Roza, B. Palmer,
    A. Panyala, T. Pirojsirikul, B. Peng, R. Peverati, J. Pittner, L. Pollack,
   R. M. Richard, P. Sadayappan, G. C. Schatz, W. A. Shelton, D. W. Silverstein,
   D. M. A. Smith, T. A. Soares, D. Song, M. Swart, H. L. Taylor, G. S. Thomas,
            V. Tipparaju, D. G. Truhlar, K. Tsemekhman, T. Van Voorhis,
     . Vzquez-Mayagoitia, P. Verma, O. Villa, A. Vishnu, K. D. Vogiatzis,
        D. Wang, J. H. Weare, M. J. Williamson, T. L. Windus, K. Woliski,
        A. T. Wong, Q. Wu, C. Yang, Q. Yu, M. Zacharias, Z. Zhang, Y. Zhao,
                                and R. J. Harrison
                        "NWChem: Past, present, and future
                         J. Chem. Phys. 152, 184102 (2020)
                               doi:10.1063/5.0004997

                                      AUTHORS
                                      -------
     E. Apra, E. J. Bylaska, N. Govind, K. Kowalski, M. Valiev, W. A. de Jong,
      T. P. Straatsma, H. J. J. van Dam, D. Wang, T. L. Windus, N. P. Bauman,
       A. Panyala, J. Hammond, J. Autschbach, K. Bhaskaran-Nair, J. Brabec,
    K. Lopata, S. A. Fischer, S. Krishnamoorthy, M. Jacquelin, W. Ma, M. Klemm,
       O. Villa, Y. Chen, V. Anisimov, F. Aquino, S. Hirata, M. T. Hackler,
           Eric Hermes, L. Jensen, J. E. Moore, J. C. Becca, V. Konjkov,
            D. Mejia-Rodriguez, T. Risthaus, M. Malagoli, A. Marenich,
   A. Otero-de-la-Roza, J. Mullin, P. Nichols, R. Peverati, J. Pittner, Y. Zhao,
        P.-D. Fan, A. Fonari, M. J. Williamson, R. J. Harrison, J. R. Rehr,
      M. Dupuis, D. Silverstein, D. M. A. Smith, J. Nieplocha, V. Tipparaju,
      M. Krishnan, B. E. Van Kuiken, A. Vazquez-Mayagoitia, M. Swart, Q. Wu,
   T. Van Voorhis, A. A. Auer, M. Nooijen, L. D. Crosby, E. Brown, G. Cisneros,
     G. I. Fann, H. Fruchtl, J. Garza, K. Hirao, R. A. Kendall, J. A. Nichols,
       K. Tsemekhman, K. Wolinski, J. Anchell, D. E. Bernholdt, P. Borowski,
       T. Clark, D. Clerc, H. Dachsel, M. J. O. Deegan, K. Dyall, D. Elwood,
      E. Glendening, M. Gutowski, A. C. Hess, J. Jaffe, B. G. Johnson, J. Ju,
        R. Kobayashi, R. Kutteh, Z. Lin, R. Littlefield, X. Long, B. Meng,
      T. Nakajima, S. Niu, L. Pollack, M. Rosing, K. Glaesemann, G. Sandrone,
      M. Stave, H. Taylor, G. Thomas, J. H. van Lenthe, A. T. Wong, Z. Zhang.

 Total times  cpu:     1173.2s     wall:     1057.0s
